 Entering Gaussian System, Link 0=g09
 Input=waterH.gjf
 Output=waterH.log
 Initial command:
 /home/wxyhgk/g09/l1.exe "/home/wxyhgk/g09/scratch/Gau-2846693.inp" -scrdir="/home/wxyhgk/g09/scratch/"
 Default is to use a total of  32 processors:
                               32 via shared-memory
                                1 via Linda
 Entering Link 1 = /home/wxyhgk/g09/l1.exe PID=   2846694.
  
 Copyright (c) 1988,1990,1992,1993,1995,1998,2003,2009,2013,
            Gaussian, Inc.  All Rights Reserved.
  
 This is part of the Gaussian(R) 09 program.  It is based on
 the Gaussian(R) 03 system (copyright 2003, Gaussian, Inc.),
 the Gaussian(R) 98 system (copyright 1998, Gaussian, Inc.),
 the Gaussian(R) 94 system (copyright 1995, Gaussian, Inc.),
 the Gaussian 92(TM) system (copyright 1992, Gaussian, Inc.),
 the Gaussian 90(TM) system (copyright 1990, Gaussian, Inc.),
 the Gaussian 88(TM) system (copyright 1988, Gaussian, Inc.),
 the Gaussian 86(TM) system (copyright 1986, Carnegie Mellon
 University), and the Gaussian 82(TM) system (copyright 1983,
 Carnegie Mellon University). Gaussian is a federally registered
 trademark of Gaussian, Inc.
  
 This software contains proprietary and confidential information,
 including trade secrets, belonging to Gaussian, Inc.
  
 This software is provided under written license and may be
 used, copied, transmitted, or stored only in accord with that
 written license.
  
 The following legend is applicable only to US Government
 contracts under FAR:
  
                    RESTRICTED RIGHTS LEGEND
  
 Use, reproduction and disclosure by the US Government is
 subject to restrictions as set forth in subparagraphs (a)
 and (c) of the Commercial Computer Software - Restricted
 Rights clause in FAR 52.227-19.
  
 Gaussian, Inc.
 340 Quinnipiac St., Bldg. 40, Wallingford CT 06492
  
  
 ---------------------------------------------------------------
 Warning -- This program may not be used in any manner that
 competes with the business of Gaussian, Inc. or will provide
 assistance to any competitor of Gaussian, Inc.  The licensee
 of this program is prohibited from giving any competitor of
 Gaussian, Inc. access to this program.  By using this program,
 the user acknowledges that Gaussian, Inc. is engaged in the
 business of creating and licensing software in the field of
 computational chemistry and represents and warrants to the
 licensee that it is not a competitor of Gaussian, Inc. and that
 it will not use this program in any manner prohibited above.
 ---------------------------------------------------------------
  

 Cite this work as:
 Gaussian 09, Revision D.01,
 M. J. Frisch, G. W. Trucks, H. B. Schlegel, G. E. Scuseria, 
 M. A. Robb, J. R. Cheeseman, G. Scalmani, V. Barone, B. Mennucci, 
 G. A. Petersson, H. Nakatsuji, M. Caricato, X. Li, H. P. Hratchian, 
 A. F. Izmaylov, J. Bloino, G. Zheng, J. L. Sonnenberg, M. Hada, 
 M. Ehara, K. Toyota, R. Fukuda, J. Hasegawa, M. Ishida, T. Nakajima, 
 Y. Honda, O. Kitao, H. Nakai, T. Vreven, J. A. Montgomery, Jr., 
 J. E. Peralta, F. Ogliaro, M. Bearpark, J. J. Heyd, E. Brothers, 
 K. N. Kudin, V. N. Staroverov, T. Keith, R. Kobayashi, J. Normand, 
 K. Raghavachari, A. Rendell, J. C. Burant, S. S. Iyengar, J. Tomasi, 
 M. Cossi, N. Rega, J. M. Millam, M. Klene, J. E. Knox, J. B. Cross, 
 V. Bakken, C. Adamo, J. Jaramillo, R. Gomperts, R. E. Stratmann, 
 O. Yazyev, A. J. Austin, R. Cammi, C. Pomelli, J. W. Ochterski, 
 R. L. Martin, K. Morokuma, V. G. Zakrzewski, G. A. Voth, 
 P. Salvador, J. J. Dannenberg, S. Dapprich, A. D. Daniels, 
 O. Farkas, J. B. Foresman, J. V. Ortiz, J. Cioslowski, 
 and D. J. Fox, Gaussian, Inc., Wallingford CT, 2013.
 
 ******************************************
 Gaussian 09:  EM64L-G09RevD.01 24-Apr-2013
                 2-Nov-2023 
 ******************************************
 %chk=waterH.chk
 -------------------------------------------------
 # opt=maxcycle=100 freq B3LYP/6-31G(d,p) em=gd3bj
 -------------------------------------------------
 1/6=100,14=-1,18=20,19=15,26=3,38=1/1,3;
 2/9=110,12=2,17=6,18=5,40=1/2;
 3/5=1,6=6,7=101,11=2,16=1,25=1,30=1,71=1,74=-5,124=41/1,2,3;
 4//1;
 5/5=2,38=5/2;
 6/7=2,8=2,9=2,10=2,28=1/1;
 7//1,2,3,16;
 1/6=100,14=-1,18=20,19=15,26=3/3(2);
 2/9=110/2;
 99//99;
 2/9=110/2;
 3/5=1,6=6,7=101,11=2,16=1,25=1,30=1,71=1,74=-5,124=41/1,2,3;
 4/5=5,16=3,69=1/1;
 5/5=2,38=5/2;
 7//1,2,3,16;
 1/6=100,14=-1,18=20,19=15,26=3/3(-5);
 2/9=110/2;
 6/7=2,8=2,9=2,10=2,19=2,28=1/1;
 99/9=1/99;
 ------------------------
 Calculated hydrogen bond
 ------------------------
 Symbolic Z-matrix:
 Charge =  0 Multiplicity = 1
 O                     0.8013    0.79501   0.02098 
 H                     1.7613    0.79501   0.02098 
 H                     0.48085   1.69994   0.02098 
 F                    -1.03045  -1.00624   0.25111 
 H                    -0.41521  -0.37946   0.30617 
 
 Add virtual bond connecting atoms H5         and O1         Dist= 3.24D+00.

 GradGradGradGradGradGradGradGradGradGradGradGradGradGradGradGradGradGrad
 Berny optimization.
 Initialization pass.
                           ----------------------------
                           !    Initial Parameters    !
                           ! (Angstroms and Degrees)  !
 --------------------------                            --------------------------
 ! Name  Definition              Value          Derivative Info.                !
 --------------------------------------------------------------------------------
 ! R1    R(1,2)                  0.96           estimate D2E/DX2                !
 ! R2    R(1,3)                  0.96           estimate D2E/DX2                !
 ! R3    R(1,5)                  1.7148         estimate D2E/DX2                !
 ! R4    R(4,5)                  0.88           estimate D2E/DX2                !
 ! A1    A(2,1,3)              109.5            estimate D2E/DX2                !
 ! A2    A(2,1,5)              135.1871         estimate D2E/DX2                !
 ! A3    A(3,1,5)              114.1295         estimate D2E/DX2                !
 ! A4    L(1,5,4,3,-1)         178.8755         estimate D2E/DX2                !
 ! A5    L(1,5,4,3,-2)         145.9693         estimate D2E/DX2                !
 ! D1    D(2,1,5,3)            165.8934         estimate D2E/DX2                !
 --------------------------------------------------------------------------------
 Trust Radius=3.00D-01 FncErr=1.00D-07 GrdErr=1.00D-06
 Number of steps in this run=    100 maximum allowed number of steps=    100.
 GradGradGradGradGradGradGradGradGradGradGradGradGradGradGradGradGradGrad

                          Input orientation:                          
 ---------------------------------------------------------------------
 Center     Atomic      Atomic             Coordinates (Angstroms)
 Number     Number       Type             X           Y           Z
 ---------------------------------------------------------------------
      1          8           0        0.801302    0.795007    0.020983
      2          1           0        1.761302    0.795007    0.020983
      3          1           0        0.480848    1.699942    0.020983
      4          9           0       -1.030450   -1.006240    0.251106
      5          1           0       -0.415213   -0.379462    0.306170
 ---------------------------------------------------------------------
                    Distance matrix (angstroms):
                    1          2          3          4          5
     1  O    0.000000
     2  H    0.960000   0.000000
     3  H    0.960000   1.567952   0.000000
     4  F    2.579295   3.330365   3.108119   0.000000
     5  H    1.714823   2.489564   2.282143   0.880000   0.000000
 Stoichiometry    FH3O
 Framework group  C1[X(FH3O)]
 Deg. of freedom     9
 Full point group                 C1      NOp   1
 Largest Abelian subgroup         C1      NOp   1
 Largest concise Abelian subgroup C1      NOp   1
                         Standard orientation:                         
 ---------------------------------------------------------------------
 Center     Atomic      Atomic             Coordinates (Angstroms)
 Number     Number       Type             X           Y           Z
 ---------------------------------------------------------------------
      1          8           0        1.191770   -0.014695   -0.015169
      2          1           0        1.871334   -0.690686    0.038015
      3          1           0        1.599326    0.853455    0.027410
      4          9           0       -1.387498   -0.005653   -0.007480
      5          1           0       -0.517336    0.005673    0.123248
 ---------------------------------------------------------------------
 Rotational constants (GHZ):    407.7995817      7.7512561      7.6115317
 Standard basis: 6-31G(d,p) (6D, 7F)
 There are    45 symmetry adapted cartesian basis functions of A   symmetry.
 There are    45 symmetry adapted basis functions of A   symmetry.
    45 basis functions,    77 primitive gaussians,    45 cartesian basis functions
    10 alpha electrons       10 beta electrons
       nuclear repulsion energy        35.2164412073 Hartrees.
 NAtoms=    5 NActive=    5 NUniq=    5 SFac= 1.00D+00 NAtFMM=   60 NAOKFM=F Big=F
 Integral buffers will be    131072 words long.
 Raffenetti 2 integral format.
 Two-electron integral symmetry is turned on.
 Nuclear repulsion after empirical dispersion term =       35.2148109220 Hartrees.
 One-electron integrals computed using PRISM.
 NBasis=    45 RedAO= T EigKep=  6.78D-03  NBF=    45
 NBsUse=    45 1.00D-06 EigRej= -1.00D+00 NBFU=    45
 ExpMin= 1.61D-01 ExpMax= 7.00D+03 ExpMxC= 1.05D+03 IAcc=1 IRadAn=         1 AccDes= 0.00D+00
 Harris functional with IExCor=  402 and IRadAn=       1 diagonalized for initial guess.
 HarFok:  IExCor=  402 AccDes= 0.00D+00 IRadAn=         1 IDoV= 1 UseB2=F ITyADJ=14
 ICtDFT=  3500011 ScaDFX=  1.000000  1.000000  1.000000  1.000000
 FoFCou: FMM=F IPFlag=           0 FMFlag=      100000 FMFlg1=           0
         NFxFlg=           0 DoJE=T BraDBF=F KetDBF=T FulRan=T
         wScrn=  0.000000 ICntrl=     500 IOpCl=  0 I1Cent=   200000004 NGrid=           0
         NMat0=    1 NMatS0=      1 NMatT0=    0 NMatD0=    1 NMtDS0=    0 NMtDT0=    0
 Petite list used in FoFCou.
 Keep R1 ints in memory in canonical form, NReq=1427337.
 Requested convergence on RMS density matrix=1.00D-08 within 128 cycles.
 Requested convergence on MAX density matrix=1.00D-06.
 Requested convergence on             energy=1.00D-06.
 No special actions if energy rises.
 Integral accuracy reduced to 1.0D-05 until final iterations.
 Initial convergence to 1.0D-05 achieved.  Increase integral accuracy.
 SCF Done:  E(RB3LYP) =  -176.860368818     A.U. after   10 cycles
            NFock= 10  Conv=0.69D-08     -V/T= 2.0061

 **********************************************************************

            Population analysis using the SCF density.

 **********************************************************************

 Orbital symmetries:
       Occupied  (A) (A) (A) (A) (A) (A) (A) (A) (A) (A)
       Virtual   (A) (A) (A) (A) (A) (A) (A) (A) (A) (A) (A) (A)
                 (A) (A) (A) (A) (A) (A) (A) (A) (A) (A) (A) (A)
                 (A) (A) (A) (A) (A) (A) (A) (A) (A) (A) (A)
 The electronic state is 1-A.
 Alpha  occ. eigenvalues --  -24.60325 -19.18362  -1.13044  -1.04241  -0.57220
 Alpha  occ. eigenvalues --   -0.49423  -0.40230  -0.34167  -0.33032  -0.32752
 Alpha virt. eigenvalues --    0.03378   0.12347   0.24101   0.73401   0.76478
 Alpha virt. eigenvalues --    0.79377   0.84165   0.95061   1.04253   1.11752
 Alpha virt. eigenvalues --    1.19778   1.23307   1.24283   1.47373   1.55620
 Alpha virt. eigenvalues --    1.58653   1.68704   1.69709   1.83720   1.91179
 Alpha virt. eigenvalues --    1.91192   2.19146   2.19956   2.42852   2.58831
 Alpha virt. eigenvalues --    2.63574   2.82681   2.85249   2.93574   3.05269
 Alpha virt. eigenvalues --    3.28679   3.47137   3.77570   3.87565   4.27650
          Condensed to atoms (all electrons):
               1          2          3          4          5
     1  O    7.994671   0.295272   0.292532  -0.015562   0.045858
     2  H    0.295272   0.396750  -0.022286   0.000721  -0.002181
     3  H    0.292532  -0.022286   0.400701   0.001002  -0.003354
     4  F   -0.015562   0.000721   0.001002   9.121767   0.287236
     5  H    0.045858  -0.002181  -0.003354   0.287236   0.327631
 Mulliken charges:
               1
     1  O   -0.612772
     2  H    0.331723
     3  H    0.331403
     4  F   -0.395164
     5  H    0.344810
 Sum of Mulliken charges =   0.00000
 Mulliken charges with hydrogens summed into heavy atoms:
               1
     1  O    0.050354
     4  F   -0.050354
 Electronic spatial extent (au):  <R**2>=            152.2036
 Charge=              0.0000 electrons
 Dipole moment (field-independent basis, Debye):
    X=              4.4618    Y=              0.3492    Z=              0.4077  Tot=              4.4940
 Quadrupole moment (field-independent basis, Debye-Ang):
   XX=             -8.9652   YY=             -9.2893   ZZ=            -12.3796
   XY=              0.0663   XZ=              0.2142   YZ=             -0.0044
 Traceless Quadrupole moment (field-independent basis, Debye-Ang):
   XX=              1.2462   YY=              0.9221   ZZ=             -2.1682
   XY=              0.0663   XZ=              0.2142   YZ=             -0.0044
 Octapole moment (field-independent basis, Debye-Ang**2):
  XXX=             15.0352  YYY=              0.6702  ZZZ=              0.1347  XYY=              3.2962
  XXY=             -0.6308  XXZ=              0.4549  XZZ=             -1.7017  YZZ=              0.0419
  YYZ=              0.1091  XYZ=             -0.0264
 Hexadecapole moment (field-independent basis, Debye-Ang**3):
 XXXX=           -105.2641 YYYY=             -8.3229 ZZZZ=             -7.9595 XXXY=             -2.4338
 XXXZ=              1.2769 YYYX=              0.7652 YYYZ=              0.0114 ZZZX=              0.1380
 ZZZY=             -0.0016 XXYY=            -15.7713 XXZZ=            -23.5803 YYZZ=             -3.0248
 XXYZ=             -0.0672 YYXZ=              0.1759 ZZXY=              0.0179
 N-N= 3.521481092198D+01 E-N=-4.913292352050D+02  KE= 1.757816885462D+02
 Calling FoFJK, ICntrl=      2127 FMM=F ISym2X=0 I1Cent= 0 IOpClX= 0 NMat=1 NMatS=1 NMatT=0.
 ***** Axes restored to original set *****
 -------------------------------------------------------------------
 Center     Atomic                   Forces (Hartrees/Bohr)
 Number     Number              X              Y              Z
 -------------------------------------------------------------------
      1        8          -0.005666821   -0.004766131   -0.000106569
      2        1           0.002007458    0.003760216    0.000623154
      3        1           0.004601871    0.004727625   -0.000228515
      4        9          -0.054694607   -0.053550460   -0.002805079
      5        1           0.053752098    0.049828749    0.002517009
 -------------------------------------------------------------------
 Cartesian Forces:  Max     0.054694607 RMS     0.027522749

 GradGradGradGradGradGradGradGradGradGradGradGradGradGradGradGradGradGrad
 Berny optimization.
 FormGI is forming the generalized inverse of G from B-inverse, IUseBI=4.
 Internal  Forces:  Max     0.076555425 RMS     0.024395901
 Search for a local minimum.
 Step number   1 out of a maximum of  100
 All quantities printed in internal units (Hartrees-Bohrs-Radians)
 Mixed Optimization -- RFO/linear search
 Second derivative matrix not updated -- first step.
 The second derivative matrix:
                          R1        R2        R3        R4        A1
           R1           0.55473
           R2           0.00000   0.55473
           R3           0.00000   0.00000   0.07195
           R4           0.00000   0.00000   0.00000   0.76963
           A1           0.00000   0.00000   0.00000   0.00000   0.16000
           A2           0.00000   0.00000   0.00000   0.00000   0.00000
           A3           0.00000   0.00000   0.00000   0.00000   0.00000
           A4           0.00000   0.00000   0.00000   0.00000   0.00000
           A5           0.00000   0.00000   0.00000   0.00000   0.00000
           D1           0.00000   0.00000   0.00000   0.00000   0.00000
                          A2        A3        A4        A5        D1
           A2           0.16000
           A3           0.00000   0.16000
           A4           0.00000   0.00000   0.02351
           A5           0.00000   0.00000   0.00000   0.02351
           D1           0.00000   0.00000   0.00000   0.00000   0.00230
 ITU=  0
     Eigenvalues ---    0.00378   0.02351   0.02351   0.07195   0.16000
     Eigenvalues ---    0.16000   0.55473   0.55473   0.76963
 RFO step:  Lambda=-8.25085274D-03 EMin= 3.78418181D-03
 Linear search not attempted -- first point.
 Iteration  1 RMS(Cart)=  0.04876697 RMS(Int)=  0.00226829
 Iteration  2 RMS(Cart)=  0.00102451 RMS(Int)=  0.00028790
 Iteration  3 RMS(Cart)=  0.00000334 RMS(Int)=  0.00028788
 Iteration  4 RMS(Cart)=  0.00000000 RMS(Int)=  0.00028788
 Variable       Old X    -DE/DX   Delta X   Delta X   Delta X     New X
                                 (Linear)    (Quad)   (Total)
    R1        1.81414   0.00201   0.00000   0.00357   0.00357   1.81770
    R2        1.81414   0.00261   0.00000   0.00463   0.00463   1.81877
    R3        3.24055   0.00335   0.00000   0.04172   0.04172   3.28226
    R4        1.66296   0.07656   0.00000   0.09842   0.09842   1.76137
    A1        1.91114  -0.00597   0.00000  -0.03950  -0.04003   1.87110
    A2        2.35946   0.00056   0.00000  -0.00059  -0.00110   2.35836
    A3        1.99194   0.00537   0.00000   0.02794   0.02742   2.01936
    A4        3.12197  -0.00075   0.00000  -0.02372  -0.02372   3.09825
    A5        2.54764   0.00165   0.00000   0.05188   0.05188   2.59952
    D1        2.89539  -0.00091   0.00000  -0.07578  -0.07567   2.81972
         Item               Value     Threshold  Converged?
 Maximum Force            0.076555     0.000450     NO 
 RMS     Force            0.024396     0.000300     NO 
 Maximum Displacement     0.093801     0.001800     NO 
 RMS     Displacement     0.048707     0.001200     NO 
 Predicted change in Energy=-4.218344D-03
 GradGradGradGradGradGradGradGradGradGradGradGradGradGradGradGradGradGrad

                          Input orientation:                          
 ---------------------------------------------------------------------
 Center     Atomic      Atomic             Coordinates (Angstroms)
 Number     Number       Type             X           Y           Z
 ---------------------------------------------------------------------
      1          8           0        0.809008    0.804491    0.003504
      2          1           0        1.770431    0.821008    0.028403
      3          1           0        0.507942    1.718416    0.023715
      4          9           0       -1.080088   -1.042919    0.262639
      5          1           0       -0.409505   -0.396743    0.301963
 ---------------------------------------------------------------------
                    Distance matrix (angstroms):
                    1          2          3          4          5
     1  O    0.000000
     2  H    0.961887   0.000000
     3  H    0.962449   1.548949   0.000000
     4  F    2.654950   3.413876   3.194353   0.000000
     5  H    1.736898   2.511946   2.322289   0.932079   0.000000
 Stoichiometry    FH3O
 Framework group  C1[X(FH3O)]
 Deg. of freedom     9
 Full point group                 C1      NOp   1
 Largest Abelian subgroup         C1      NOp   1
 Largest concise Abelian subgroup C1      NOp   1
                         Standard orientation:                         
 ---------------------------------------------------------------------
 Center     Atomic      Atomic             Coordinates (Angstroms)
 Number     Number       Type             X           Y           Z
 ---------------------------------------------------------------------
      1          8           0        1.225525   -0.014982   -0.021468
      2          1           0        1.916292   -0.679372    0.060115
      3          1           0        1.649417    0.846359    0.047205
      4          9           0       -1.429355   -0.003480   -0.006015
      5          1           0       -0.505719   -0.015804    0.118554
 ---------------------------------------------------------------------
 Rotational constants (GHZ):    415.3552468      7.3201185      7.1987528
 Standard basis: 6-31G(d,p) (6D, 7F)
 There are    45 symmetry adapted cartesian basis functions of A   symmetry.
 There are    45 symmetry adapted basis functions of A   symmetry.
    45 basis functions,    77 primitive gaussians,    45 cartesian basis functions
    10 alpha electrons       10 beta electrons
       nuclear repulsion energy        34.3637568286 Hartrees.
 NAtoms=    5 NActive=    5 NUniq=    5 SFac= 1.00D+00 NAtFMM=   60 NAOKFM=F Big=F
 Integral buffers will be    131072 words long.
 Raffenetti 2 integral format.
 Two-electron integral symmetry is turned on.
 Nuclear repulsion after empirical dispersion term =       34.3621545980 Hartrees.
 One-electron integrals computed using PRISM.
 NBasis=    45 RedAO= T EigKep=  7.45D-03  NBF=    45
 NBsUse=    45 1.00D-06 EigRej= -1.00D+00 NBFU=    45
 Initial guess from the checkpoint file:  "waterH.chk"
 B after Tr=     0.000000    0.000000    0.000000
         Rot=    0.999998   -0.001973   -0.000085    0.000253 Ang=  -0.23 deg.
 ExpMin= 1.61D-01 ExpMax= 7.00D+03 ExpMxC= 1.05D+03 IAcc=1 IRadAn=         1 AccDes= 0.00D+00
 Harris functional with IExCor=  402 and IRadAn=       1 diagonalized for initial guess.
 HarFok:  IExCor=  402 AccDes= 0.00D+00 IRadAn=         1 IDoV= 1 UseB2=F ITyADJ=14
 ICtDFT=  3500011 ScaDFX=  1.000000  1.000000  1.000000  1.000000
 FoFCou: FMM=F IPFlag=           0 FMFlag=      100000 FMFlg1=           0
         NFxFlg=           0 DoJE=T BraDBF=F KetDBF=T FulRan=T
         wScrn=  0.000000 ICntrl=     500 IOpCl=  0 I1Cent=   200000004 NGrid=           0
         NMat0=    1 NMatS0=      1 NMatT0=    0 NMatD0=    1 NMtDS0=    0 NMtDT0=    0
 Petite list used in FoFCou.
 Keep R1 ints in memory in canonical form, NReq=1427337.
 Requested convergence on RMS density matrix=1.00D-08 within 128 cycles.
 Requested convergence on MAX density matrix=1.00D-06.
 Requested convergence on             energy=1.00D-06.
 No special actions if energy rises.
 Integral accuracy reduced to 1.0D-05 until final iterations.
 Initial convergence to 1.0D-05 achieved.  Increase integral accuracy.
 SCF Done:  E(RB3LYP) =  -176.864735305     A.U. after   11 cycles
            NFock= 11  Conv=0.16D-08     -V/T= 2.0068
 Calling FoFJK, ICntrl=      2127 FMM=F ISym2X=0 I1Cent= 0 IOpClX= 0 NMat=1 NMatS=1 NMatT=0.
 ***** Axes restored to original set *****
 -------------------------------------------------------------------
 Center     Atomic                   Forces (Hartrees/Bohr)
 Number     Number              X              Y              Z
 -------------------------------------------------------------------
      1        8          -0.004003355   -0.001319292   -0.000301633
      2        1           0.001244543    0.000343516    0.000863017
      3        1           0.001577386    0.002023296    0.000039373
      4        9          -0.005344366   -0.003749075    0.001371123
      5        1           0.006525792    0.002701554   -0.001971881
 -------------------------------------------------------------------
 Cartesian Forces:  Max     0.006525792 RMS     0.002888182

 GradGradGradGradGradGradGradGradGradGradGradGradGradGradGradGradGradGrad
 Berny optimization.
 Using GEDIIS/GDIIS optimizer.
 FormGI is forming the generalized inverse of G from B-inverse, IUseBI=4.
 Internal  Forces:  Max     0.006386220 RMS     0.002417060
 Search for a local minimum.
 Step number   2 out of a maximum of  100
 All quantities printed in internal units (Hartrees-Bohrs-Radians)
 Mixed Optimization -- RFO/linear search
 Update second derivatives using D2CorX and points    1    2
 DE= -4.37D-03 DEPred=-4.22D-03 R= 1.04D+00
 TightC=F SS=  1.41D+00  RLast= 1.51D-01 DXNew= 5.0454D-01 4.5294D-01
 Trust test= 1.04D+00 RLast= 1.51D-01 DXMaxT set to 4.53D-01
 The second derivative matrix:
                          R1        R2        R3        R4        A1
           R1           0.55432
           R2          -0.00049   0.55419
           R3          -0.00039  -0.00030   0.07243
           R4          -0.01154  -0.01064   0.00460   0.72991
           A1           0.00113   0.00119   0.00032   0.01795   0.15757
           A2           0.00023   0.00042   0.00095   0.01977  -0.00128
           A3          -0.00081  -0.00089  -0.00041  -0.01607   0.00190
           A4           0.00012   0.00014   0.00011   0.00317  -0.00031
           A5          -0.00027  -0.00034  -0.00033  -0.00896   0.00081
           D1           0.00003   0.00003   0.00001   0.00060  -0.00007
                          A2        A3        A4        A5        D1
           A2           0.16048
           A3           0.00077   0.15855
           A4          -0.00007   0.00023   0.02348
           A5           0.00009  -0.00057   0.00008   0.02334
           D1          -0.00003   0.00006  -0.00001   0.00002   0.00230
 ITU=  1  0
 Use linear search instead of GDIIS.
     Eigenvalues ---    0.00469   0.02316   0.02351   0.07239   0.15474
     Eigenvalues ---    0.16068   0.55243   0.55474   0.73284
 RFO step:  Lambda=-7.03686900D-04 EMin= 4.68972374D-03
 Quartic linear search produced a step of  0.15665.
 Iteration  1 RMS(Cart)=  0.04226279 RMS(Int)=  0.03233696
 Iteration  2 RMS(Cart)=  0.01921763 RMS(Int)=  0.00571135
 Iteration  3 RMS(Cart)=  0.00054247 RMS(Int)=  0.00568146
 Iteration  4 RMS(Cart)=  0.00000054 RMS(Int)=  0.00568146
 Variable       Old X    -DE/DX   Delta X   Delta X   Delta X     New X
                                 (Linear)    (Quad)   (Total)
    R1        1.81770   0.00127   0.00056   0.00224   0.00279   1.82050
    R2        1.81877   0.00120   0.00073   0.00196   0.00268   1.82145
    R3        3.28226  -0.00008   0.00653  -0.00160   0.00493   3.28720
    R4        1.76137   0.00639   0.01542  -0.00209   0.01333   1.77470
    A1        1.87110  -0.00156  -0.00627  -0.02929  -0.04655   1.82455
    A2        2.35836  -0.00133  -0.00017  -0.02964  -0.03906   2.31930
    A3        2.01936   0.00274   0.00430  -0.00290  -0.00849   2.01087
    A4        3.09825  -0.00054  -0.00372  -0.03118  -0.03490   3.06335
    A5        2.59952   0.00139   0.00813   0.07829   0.08642   2.68594
    D1        2.81972  -0.00080  -0.01185  -0.28688  -0.29439   2.52533
         Item               Value     Threshold  Converged?
 Maximum Force            0.006386     0.000450     NO 
 RMS     Force            0.002417     0.000300     NO 
 Maximum Displacement     0.129553     0.001800     NO 
 RMS     Displacement     0.059331     0.001200     NO 
 Predicted change in Energy=-4.101840D-05
 GradGradGradGradGradGradGradGradGradGradGradGradGradGradGradGradGradGrad

                          Input orientation:                          
 ---------------------------------------------------------------------
 Center     Atomic      Atomic             Coordinates (Angstroms)
 Number     Number       Type             X           Y           Z
 ---------------------------------------------------------------------
      1          8           0        0.808402    0.800324   -0.065053
      2          1           0        1.762165    0.836733    0.065655
      3          1           0        0.513573    1.710850    0.049240
      4          9           0       -1.098299   -1.028970    0.291710
      5          1           0       -0.388052   -0.414683    0.278672
 ---------------------------------------------------------------------
                    Distance matrix (angstroms):
                    1          2          3          4          5
     1  O    0.000000
     2  H    0.963366   0.000000
     3  H    0.963870   1.524248   0.000000
     4  F    2.666290   3.422602   3.188030   0.000000
     5  H    1.739509   2.496969   2.320228   0.939132   0.000000
 Stoichiometry    FH3O
 Framework group  C1[X(FH3O)]
 Deg. of freedom     9
 Full point group                 C1      NOp   1
 Largest Abelian subgroup         C1      NOp   1
 Largest concise Abelian subgroup C1      NOp   1
                         Standard orientation:                         
 ---------------------------------------------------------------------
 Center     Atomic      Atomic             Coordinates (Angstroms)
 Number     Number       Type             X           Y           Z
 ---------------------------------------------------------------------
      1          8           0        1.231479   -0.015631   -0.047069
      2          1           0        1.921155   -0.655754    0.159483
      3          1           0        1.637948    0.841522    0.123567
      4          9           0       -1.434357   -0.000591   -0.000219
      5          1           0       -0.501723   -0.055404    0.095478
 ---------------------------------------------------------------------
 Rotational constants (GHZ):    410.3448452      7.2635474      7.1530333
 Standard basis: 6-31G(d,p) (6D, 7F)
 There are    45 symmetry adapted cartesian basis functions of A   symmetry.
 There are    45 symmetry adapted basis functions of A   symmetry.
    45 basis functions,    77 primitive gaussians,    45 cartesian basis functions
    10 alpha electrons       10 beta electrons
       nuclear repulsion energy        34.2538535836 Hartrees.
 NAtoms=    5 NActive=    5 NUniq=    5 SFac= 1.00D+00 NAtFMM=   60 NAOKFM=F Big=F
 Integral buffers will be    131072 words long.
 Raffenetti 2 integral format.
 Two-electron integral symmetry is turned on.
 Nuclear repulsion after empirical dispersion term =       34.2522518139 Hartrees.
 One-electron integrals computed using PRISM.
 NBasis=    45 RedAO= T EigKep=  7.53D-03  NBF=    45
 NBsUse=    45 1.00D-06 EigRej= -1.00D+00 NBFU=    45
 Initial guess from the checkpoint file:  "waterH.chk"
 B after Tr=     0.000000    0.000000    0.000000
         Rot=    0.999999   -0.001641    0.000041   -0.000358 Ang=  -0.19 deg.
 ExpMin= 1.61D-01 ExpMax= 7.00D+03 ExpMxC= 1.05D+03 IAcc=1 IRadAn=         1 AccDes= 0.00D+00
 Harris functional with IExCor=  402 and IRadAn=       1 diagonalized for initial guess.
 HarFok:  IExCor=  402 AccDes= 0.00D+00 IRadAn=         1 IDoV= 1 UseB2=F ITyADJ=14
 ICtDFT=  3500011 ScaDFX=  1.000000  1.000000  1.000000  1.000000
 FoFCou: FMM=F IPFlag=           0 FMFlag=      100000 FMFlg1=           0
         NFxFlg=           0 DoJE=T BraDBF=F KetDBF=T FulRan=T
         wScrn=  0.000000 ICntrl=     500 IOpCl=  0 I1Cent=   200000004 NGrid=           0
         NMat0=    1 NMatS0=      1 NMatT0=    0 NMatD0=    1 NMtDS0=    0 NMtDT0=    0
 Petite list used in FoFCou.
 Keep R1 ints in memory in canonical form, NReq=1427337.
 Requested convergence on RMS density matrix=1.00D-08 within 128 cycles.
 Requested convergence on MAX density matrix=1.00D-06.
 Requested convergence on             energy=1.00D-06.
 No special actions if energy rises.
 Integral accuracy reduced to 1.0D-05 until final iterations.
 Initial convergence to 1.0D-05 achieved.  Increase integral accuracy.
 SCF Done:  E(RB3LYP) =  -176.865175029     A.U. after   11 cycles
            NFock= 11  Conv=0.22D-08     -V/T= 2.0069
 Calling FoFJK, ICntrl=      2127 FMM=F ISym2X=0 I1Cent= 0 IOpClX= 0 NMat=1 NMatS=1 NMatT=0.
 ***** Axes restored to original set *****
 -------------------------------------------------------------------
 Center     Atomic                   Forces (Hartrees/Bohr)
 Number     Number              X              Y              Z
 -------------------------------------------------------------------
      1        8          -0.000272671    0.002637555   -0.000594963
      2        1           0.001433787   -0.003223539    0.000973772
      3        1          -0.002329554    0.000847754    0.000007915
      4        9           0.000446388    0.001040783    0.001481681
      5        1           0.000722050   -0.001302553   -0.001868405
 -------------------------------------------------------------------
 Cartesian Forces:  Max     0.003223539 RMS     0.001551614

 GradGradGradGradGradGradGradGradGradGradGradGradGradGradGradGradGradGrad
 Berny optimization.
 Using GEDIIS/GDIIS optimizer.
 FormGI is forming the generalized inverse of G from B-inverse, IUseBI=4.
 Internal  Forces:  Max     0.003489956 RMS     0.001688621
 Search for a local minimum.
 Step number   3 out of a maximum of  100
 All quantities printed in internal units (Hartrees-Bohrs-Radians)
 Mixed Optimization -- RFO/linear search
 Update second derivatives using D2CorX and points    1    2    3
 DE= -4.40D-04 DEPred=-4.10D-05 R= 1.07D+01
 TightC=F SS=  1.41D+00  RLast= 3.15D-01 DXNew= 7.6176D-01 9.4551D-01
 Trust test= 1.07D+01 RLast= 3.15D-01 DXMaxT set to 7.62D-01
 The second derivative matrix:
                          R1        R2        R3        R4        A1
           R1           0.55290
           R2          -0.00188   0.55282
           R3          -0.00130  -0.00112   0.07348
           R4          -0.02855  -0.02631   0.01938   0.92978
           A1           0.01190   0.01129  -0.00533  -0.04989   0.17282
           A2           0.00552   0.00576   0.00816   0.14342  -0.07096
           A3          -0.00076  -0.00058   0.00646   0.09185  -0.05124
           A4           0.00108   0.00106   0.00011   0.00513  -0.00290
           A5          -0.00245  -0.00245  -0.00096  -0.02302   0.01139
           D1           0.00101   0.00096  -0.00042  -0.00433   0.00071
                          A2        A3        A4        A5        D1
           A2           0.14985
           A3           0.01671   0.18729
           A4          -0.00511  -0.00239   0.02305
           A5           0.01002   0.00274   0.00127   0.02036
           D1          -0.00618  -0.00445  -0.00027   0.00102   0.00232
 ITU=  1  1  0
 Use linear search instead of GDIIS.
     Eigenvalues ---    0.00247   0.02080   0.02353   0.07271   0.14876
     Eigenvalues ---    0.23384   0.54752   0.55474   0.96635
 RFO step:  Lambda=-2.90330751D-04 EMin= 2.46584141D-03
 Quartic linear search produced a step of  0.31607.
 Iteration  1 RMS(Cart)=  0.05108577 RMS(Int)=  0.01116251
 Iteration  2 RMS(Cart)=  0.00750921 RMS(Int)=  0.00561142
 Iteration  3 RMS(Cart)=  0.00009896 RMS(Int)=  0.00561008
 Iteration  4 RMS(Cart)=  0.00000035 RMS(Int)=  0.00561008
 Variable       Old X    -DE/DX   Delta X   Delta X   Delta X     New X
                                 (Linear)    (Quad)   (Total)
    R1        1.82050   0.00143   0.00088   0.00416   0.00504   1.82554
    R2        1.82145   0.00135   0.00085   0.00400   0.00484   1.82629
    R3        3.28720  -0.00061   0.00156  -0.00572  -0.00416   3.28303
    R4        1.77470  -0.00100   0.00421   0.00666   0.01088   1.78558
    A1        1.82455   0.00303  -0.01471  -0.00066  -0.02667   1.79788
    A2        2.31930  -0.00349  -0.01234  -0.04543  -0.06595   2.25335
    A3        2.01087  -0.00029  -0.00268  -0.01057  -0.02241   1.98846
    A4        3.06335  -0.00035  -0.01103  -0.03015  -0.04118   3.02217
    A5        2.68594   0.00124   0.02731   0.09263   0.11994   2.80588
    D1        2.52533  -0.00041  -0.09305  -0.12227  -0.20927   2.31606
         Item               Value     Threshold  Converged?
 Maximum Force            0.003490     0.000450     NO 
 RMS     Force            0.001689     0.000300     NO 
 Maximum Displacement     0.107541     0.001800     NO 
 RMS     Displacement     0.056219     0.001200     NO 
 Predicted change in Energy=-2.466065D-04
 GradGradGradGradGradGradGradGradGradGradGradGradGradGradGradGradGradGrad

                          Input orientation:                          
 ---------------------------------------------------------------------
 Center     Atomic      Atomic             Coordinates (Angstroms)
 Number     Number       Type             X           Y           Z
 ---------------------------------------------------------------------
      1          8           0        0.808539    0.802902   -0.121961
      2          1           0        1.747923    0.834541    0.101150
      3          1           0        0.508577    1.700998    0.071537
      4          9           0       -1.103349   -1.008361    0.325623
      5          1           0       -0.363902   -0.425827    0.243876
 ---------------------------------------------------------------------
                    Distance matrix (angstroms):
                    1          2          3          4          5
     1  O    0.000000
     2  H    0.966034   0.000000
     3  H    0.966434   1.512482   0.000000
     4  F    2.671389   3.402415   3.162829   0.000000
     5  H    1.737305   2.463474   2.305277   0.944887   0.000000
 Stoichiometry    FH3O
 Framework group  C1[X(FH3O)]
 Deg. of freedom     9
 Full point group                 C1      NOp   1
 Largest Abelian subgroup         C1      NOp   1
 Largest concise Abelian subgroup C1      NOp   1
                         Standard orientation:                         
 ---------------------------------------------------------------------
 Center     Atomic      Atomic             Coordinates (Angstroms)
 Number     Number       Type             X           Y           Z
 ---------------------------------------------------------------------
      1          8           0        1.236430   -0.015042   -0.067621
      2          1           0        1.897742   -0.644789    0.247510
      3          1           0        1.610774    0.838963    0.186418
      4          9           0       -1.433900    0.001832    0.005697
      5          1           0       -0.494852   -0.090323    0.055769
 ---------------------------------------------------------------------
 Rotational constants (GHZ):    389.3921265      7.2551444      7.1543693
 Standard basis: 6-31G(d,p) (6D, 7F)
 There are    45 symmetry adapted cartesian basis functions of A   symmetry.
 There are    45 symmetry adapted basis functions of A   symmetry.
    45 basis functions,    77 primitive gaussians,    45 cartesian basis functions
    10 alpha electrons       10 beta electrons
       nuclear repulsion energy        34.2022083991 Hartrees.
 NAtoms=    5 NActive=    5 NUniq=    5 SFac= 1.00D+00 NAtFMM=   60 NAOKFM=F Big=F
 Integral buffers will be    131072 words long.
 Raffenetti 2 integral format.
 Two-electron integral symmetry is turned on.
 Nuclear repulsion after empirical dispersion term =       34.2006004417 Hartrees.
 One-electron integrals computed using PRISM.
 NBasis=    45 RedAO= T EigKep=  7.57D-03  NBF=    45
 NBsUse=    45 1.00D-06 EigRej= -1.00D+00 NBFU=    45
 Initial guess from the checkpoint file:  "waterH.chk"
 B after Tr=     0.000000    0.000000    0.000000
         Rot=    1.000000   -0.000827    0.000287   -0.000227 Ang=  -0.10 deg.
 ExpMin= 1.61D-01 ExpMax= 7.00D+03 ExpMxC= 1.05D+03 IAcc=1 IRadAn=         1 AccDes= 0.00D+00
 Harris functional with IExCor=  402 and IRadAn=       1 diagonalized for initial guess.
 HarFok:  IExCor=  402 AccDes= 0.00D+00 IRadAn=         1 IDoV= 1 UseB2=F ITyADJ=14
 ICtDFT=  3500011 ScaDFX=  1.000000  1.000000  1.000000  1.000000
 FoFCou: FMM=F IPFlag=           0 FMFlag=      100000 FMFlg1=           0
         NFxFlg=           0 DoJE=T BraDBF=F KetDBF=T FulRan=T
         wScrn=  0.000000 ICntrl=     500 IOpCl=  0 I1Cent=   200000004 NGrid=           0
         NMat0=    1 NMatS0=      1 NMatT0=    0 NMatD0=    1 NMtDS0=    0 NMtDT0=    0
 Petite list used in FoFCou.
 Keep R1 ints in memory in canonical form, NReq=1427337.
 Requested convergence on RMS density matrix=1.00D-08 within 128 cycles.
 Requested convergence on MAX density matrix=1.00D-06.
 Requested convergence on             energy=1.00D-06.
 No special actions if energy rises.
 Integral accuracy reduced to 1.0D-05 until final iterations.
 Initial convergence to 1.0D-05 achieved.  Increase integral accuracy.
 SCF Done:  E(RB3LYP) =  -176.865481159     A.U. after   11 cycles
            NFock= 11  Conv=0.21D-08     -V/T= 2.0070
 Calling FoFJK, ICntrl=      2127 FMM=F ISym2X=0 I1Cent= 0 IOpClX= 0 NMat=1 NMatS=1 NMatT=0.
 ***** Axes restored to original set *****
 -------------------------------------------------------------------
 Center     Atomic                   Forces (Hartrees/Bohr)
 Number     Number              X              Y              Z
 -------------------------------------------------------------------
      1        8           0.002932215    0.005887873    0.000987564
      2        1           0.000065735   -0.005041149    0.000042409
      3        1          -0.004001482   -0.001212165   -0.000833070
      4        9           0.004943030    0.003922232    0.000689437
      5        1          -0.003939497   -0.003556791   -0.000886340
 -------------------------------------------------------------------
 Cartesian Forces:  Max     0.005887873 RMS     0.003236083

 GradGradGradGradGradGradGradGradGradGradGradGradGradGradGradGradGradGrad
 Berny optimization.
 Using GEDIIS/GDIIS optimizer.
 FormGI is forming the generalized inverse of G from B-inverse, IUseBI=4.
 Internal  Forces:  Max     0.006226682 RMS     0.003046744
 Search for a local minimum.
 Step number   4 out of a maximum of  100
 All quantities printed in internal units (Hartrees-Bohrs-Radians)
 Mixed Optimization -- RFO/linear search
 Update second derivatives using D2CorX and points    2    3    4
 DE= -3.06D-04 DEPred=-2.47D-04 R= 1.24D+00
 TightC=F SS=  1.41D+00  RLast= 2.56D-01 DXNew= 1.2811D+00 7.6852D-01
 Trust test= 1.24D+00 RLast= 2.56D-01 DXMaxT set to 7.69D-01
 The second derivative matrix:
                          R1        R2        R3        R4        A1
           R1           0.55682
           R2           0.00222   0.55709
           R3           0.00362   0.00368   0.07399
           R4           0.01813   0.01997   0.03512   1.15348
           A1          -0.01341  -0.01370  -0.01196  -0.15601   0.22142
           A2           0.02821   0.02772   0.00795   0.19816  -0.09111
           A3           0.01966   0.01958   0.01194   0.18000  -0.09200
           A4          -0.00010  -0.00015  -0.00099  -0.00561   0.00275
           A5          -0.00475  -0.00458   0.00038  -0.01981   0.00835
           D1          -0.00492  -0.00494  -0.00283  -0.03694   0.01670
                          A2        A3        A4        A5        D1
           A2           0.13580
           A3           0.03342   0.22117
           A4          -0.01006  -0.00703   0.02336
           A5           0.01829   0.00533   0.00174   0.01835
           D1          -0.01502  -0.01747   0.00117   0.00074   0.00682
 ITU=  1  1  1  0
 Use linear search instead of GDIIS.
     Eigenvalues ---    0.00319   0.02212   0.02371   0.07242   0.13558
     Eigenvalues ---    0.25721   0.55474   0.56105   1.25441
 RFO step:  Lambda=-3.19963323D-04 EMin= 3.18635505D-03
 Quartic linear search produced a step of  0.39125.
 Iteration  1 RMS(Cart)=  0.05271658 RMS(Int)=  0.00810713
 Iteration  2 RMS(Cart)=  0.00558924 RMS(Int)=  0.00372796
 Iteration  3 RMS(Cart)=  0.00006859 RMS(Int)=  0.00372712
 Iteration  4 RMS(Cart)=  0.00000005 RMS(Int)=  0.00372712
 Variable       Old X    -DE/DX   Delta X   Delta X   Delta X     New X
                                 (Linear)    (Quad)   (Total)
    R1        1.82554  -0.00009   0.00197   0.00199   0.00396   1.82950
    R2        1.82629  -0.00015   0.00190   0.00181   0.00371   1.83000
    R3        3.28303  -0.00092  -0.00163  -0.01058  -0.01221   3.27082
    R4        1.78558  -0.00623   0.00425   0.00383   0.00809   1.79367
    A1        1.79788   0.00525  -0.01043   0.01210  -0.00605   1.79184
    A2        2.25335  -0.00436  -0.02580  -0.04576  -0.07646   2.17689
    A3        1.98846  -0.00227  -0.00877  -0.00864  -0.02301   1.96545
    A4        3.02217  -0.00004  -0.01611  -0.02252  -0.03863   2.98354
    A5        2.80588   0.00108   0.04693   0.09898   0.14591   2.95179
    D1        2.31606   0.00048  -0.08188  -0.05243  -0.12941   2.18665
         Item               Value     Threshold  Converged?
 Maximum Force            0.006227     0.000450     NO 
 RMS     Force            0.003047     0.000300     NO 
 Maximum Displacement     0.083420     0.001800     NO 
 RMS     Displacement     0.055350     0.001200     NO 
 Predicted change in Energy=-2.459641D-04
 GradGradGradGradGradGradGradGradGradGradGradGradGradGradGradGradGradGrad

                          Input orientation:                          
 ---------------------------------------------------------------------
 Center     Atomic      Atomic             Coordinates (Angstroms)
 Number     Number       Type             X           Y           Z
 ---------------------------------------------------------------------
      1          8           0        0.807652    0.811622   -0.165488
      2          1           0        1.728169    0.814689    0.134365
      3          1           0        0.498722    1.693612    0.088374
      4          9           0       -1.092578   -0.988048    0.363242
      5          1           0       -0.344176   -0.427622    0.199732
 ---------------------------------------------------------------------
                    Distance matrix (angstroms):
                    1          2          3          4          5
     1  O    0.000000
     2  H    0.968128   0.000000
     3  H    0.968395   1.512005   0.000000
     4  F    2.670065   3.355423   3.130349   0.000000
     5  H    1.730844   2.417069   2.285281   0.949168   0.000000
 Stoichiometry    FH3O
 Framework group  C1[X(FH3O)]
 Deg. of freedom     9
 Full point group                 C1      NOp   1
 Largest Abelian subgroup         C1      NOp   1
 Largest concise Abelian subgroup C1      NOp   1
                         Standard orientation:                         
 ---------------------------------------------------------------------
 Center     Atomic      Atomic             Coordinates (Angstroms)
 Number     Number       Type             X           Y           Z
 ---------------------------------------------------------------------
      1          8           0        1.239606   -0.012965   -0.082334
      2          1           0        1.847958   -0.650814    0.318078
      3          1           0        1.580554    0.835168    0.237374
      4          9           0       -1.428765    0.003302    0.011353
      5          1           0       -0.486483   -0.110355    0.001042
 ---------------------------------------------------------------------
 Rotational constants (GHZ):    363.3613778      7.2902014      7.1969741
 Standard basis: 6-31G(d,p) (6D, 7F)
 There are    45 symmetry adapted cartesian basis functions of A   symmetry.
 There are    45 symmetry adapted basis functions of A   symmetry.
    45 basis functions,    77 primitive gaussians,    45 cartesian basis functions
    10 alpha electrons       10 beta electrons
       nuclear repulsion energy        34.2187668734 Hartrees.
 NAtoms=    5 NActive=    5 NUniq=    5 SFac= 1.00D+00 NAtFMM=   60 NAOKFM=F Big=F
 Integral buffers will be    131072 words long.
 Raffenetti 2 integral format.
 Two-electron integral symmetry is turned on.
 Nuclear repulsion after empirical dispersion term =       34.2171480228 Hartrees.
 One-electron integrals computed using PRISM.
 NBasis=    45 RedAO= T EigKep=  7.57D-03  NBF=    45
 NBsUse=    45 1.00D-06 EigRej= -1.00D+00 NBFU=    45
 Initial guess from the checkpoint file:  "waterH.chk"
 B after Tr=     0.000000    0.000000    0.000000
         Rot=    0.999995   -0.003238    0.000585    0.000154 Ang=  -0.38 deg.
 ExpMin= 1.61D-01 ExpMax= 7.00D+03 ExpMxC= 1.05D+03 IAcc=1 IRadAn=         1 AccDes= 0.00D+00
 Harris functional with IExCor=  402 and IRadAn=       1 diagonalized for initial guess.
 HarFok:  IExCor=  402 AccDes= 0.00D+00 IRadAn=         1 IDoV= 1 UseB2=F ITyADJ=14
 ICtDFT=  3500011 ScaDFX=  1.000000  1.000000  1.000000  1.000000
 FoFCou: FMM=F IPFlag=           0 FMFlag=      100000 FMFlg1=           0
         NFxFlg=           0 DoJE=T BraDBF=F KetDBF=T FulRan=T
         wScrn=  0.000000 ICntrl=     500 IOpCl=  0 I1Cent=   200000004 NGrid=           0
         NMat0=    1 NMatS0=      1 NMatT0=    0 NMatD0=    1 NMtDS0=    0 NMtDT0=    0
 Petite list used in FoFCou.
 Keep R1 ints in memory in canonical form, NReq=1427337.
 Requested convergence on RMS density matrix=1.00D-08 within 128 cycles.
 Requested convergence on MAX density matrix=1.00D-06.
 Requested convergence on             energy=1.00D-06.
 No special actions if energy rises.
 Integral accuracy reduced to 1.0D-05 until final iterations.
 Initial convergence to 1.0D-05 achieved.  Increase integral accuracy.
 SCF Done:  E(RB3LYP) =  -176.865815720     A.U. after   11 cycles
            NFock= 11  Conv=0.16D-08     -V/T= 2.0070
 Calling FoFJK, ICntrl=      2127 FMM=F ISym2X=0 I1Cent= 0 IOpClX= 0 NMat=1 NMatS=1 NMatT=0.
 ***** Axes restored to original set *****
 -------------------------------------------------------------------
 Center     Atomic                   Forces (Hartrees/Bohr)
 Number     Number              X              Y              Z
 -------------------------------------------------------------------
      1        8           0.004588634    0.006910070    0.002526869
      2        1          -0.001403982   -0.004991691   -0.000995458
      3        1          -0.003889961   -0.002680566   -0.001593451
      4        9           0.007819116    0.005405342   -0.000843925
      5        1          -0.007113808   -0.004643156    0.000905965
 -------------------------------------------------------------------
 Cartesian Forces:  Max     0.007819116 RMS     0.004411950

 GradGradGradGradGradGradGradGradGradGradGradGradGradGradGradGradGradGrad
 Berny optimization.
 Using GEDIIS/GDIIS optimizer.
 FormGI is forming the generalized inverse of G from B-inverse, IUseBI=4.
 Internal  Forces:  Max     0.009502045 RMS     0.003913111
 Search for a local minimum.
 Step number   5 out of a maximum of  100
 All quantities printed in internal units (Hartrees-Bohrs-Radians)
 Mixed Optimization -- RFO/linear search
 Update second derivatives using D2CorX and points    3    4    5
 DE= -3.35D-04 DEPred=-2.46D-04 R= 1.36D+00
 TightC=F SS=  1.41D+00  RLast= 2.15D-01 DXNew= 1.2925D+00 6.4472D-01
 Trust test= 1.36D+00 RLast= 2.15D-01 DXMaxT set to 7.69D-01
 The second derivative matrix:
                          R1        R2        R3        R4        A1
           R1           0.58314
           R2           0.02776   0.58187
           R3           0.00720   0.00703   0.07258
           R4           0.09239   0.09119   0.03185   1.26831
           A1          -0.03270  -0.03173  -0.00379  -0.13401   0.17384
           A2           0.03410   0.03294   0.00081   0.15858  -0.05007
           A3           0.04071   0.03973   0.01066   0.21000  -0.08367
           A4          -0.00673  -0.00659  -0.00183  -0.02388   0.00727
           A5          -0.00223  -0.00203   0.00238  -0.00097  -0.00295
           D1          -0.01476  -0.01447  -0.00384  -0.06234   0.02197
                          A2        A3        A4        A5        D1
           A2           0.10375
           A3           0.02071   0.22880
           A4          -0.01128  -0.01221   0.02503
           A5           0.02582   0.01096   0.00104   0.01714
           D1          -0.01582  -0.02455   0.00365  -0.00048   0.01041
 ITU=  1  1  1  1  0
 Use linear search instead of GDIIS.
     Eigenvalues ---    0.00312   0.02381   0.02495   0.07142   0.11833
     Eigenvalues ---    0.22778   0.55474   0.58801   1.37473
 RFO step:  Lambda=-3.37010713D-04 EMin= 3.11584152D-03
 Quartic linear search produced a step of  1.13479.
 Iteration  1 RMS(Cart)=  0.07980843 RMS(Int)=  0.02107723
 Iteration  2 RMS(Cart)=  0.01437214 RMS(Int)=  0.00619727
 Iteration  3 RMS(Cart)=  0.00041467 RMS(Int)=  0.00618049
 Iteration  4 RMS(Cart)=  0.00000066 RMS(Int)=  0.00618049
 Variable       Old X    -DE/DX   Delta X   Delta X   Delta X     New X
                                 (Linear)    (Quad)   (Total)
    R1        1.82950  -0.00166   0.00449  -0.00161   0.00289   1.83238
    R2        1.83000  -0.00166   0.00421  -0.00163   0.00258   1.83258
    R3        3.27082  -0.00098  -0.01386  -0.01240  -0.02626   3.24456
    R4        1.79367  -0.00950   0.00918  -0.00303   0.00615   1.79982
    A1        1.79184   0.00539  -0.00686   0.02260   0.00255   1.79439
    A2        2.17689  -0.00404  -0.08677  -0.02924  -0.12292   2.05396
    A3        1.96545  -0.00305  -0.02611  -0.00302  -0.03697   1.92848
    A4        2.98354   0.00037  -0.04384   0.00615  -0.03769   2.94584
    A5        2.95179   0.00082   0.16557   0.06786   0.23344   3.18523
    D1        2.18665   0.00096  -0.14685   0.00289  -0.13402   2.05263
         Item               Value     Threshold  Converged?
 Maximum Force            0.009502     0.000450     NO 
 RMS     Force            0.003913     0.000300     NO 
 Maximum Displacement     0.133099     0.001800     NO 
 RMS     Displacement     0.089135     0.001200     NO 
 Predicted change in Energy=-3.676881D-04
 GradGradGradGradGradGradGradGradGradGradGradGradGradGradGradGradGradGrad

                          Input orientation:                          
 ---------------------------------------------------------------------
 Center     Atomic      Atomic             Coordinates (Angstroms)
 Number     Number       Type             X           Y           Z
 ---------------------------------------------------------------------
      1          8           0        0.805557    0.830159   -0.219399
      2          1           0        1.684641    0.762587    0.184180
      3          1           0        0.484736    1.685510    0.105999
      4          9           0       -1.047454   -0.964190    0.420145
      5          1           0       -0.329692   -0.409813    0.129299
 ---------------------------------------------------------------------
                    Distance matrix (angstroms):
                    1          2          3          4          5
     1  O    0.000000
     2  H    0.969656   0.000000
     3  H    0.969760   1.515807   0.000000
     4  F    2.657509   3.240645   3.076881   0.000000
     5  H    1.716949   2.331325   2.248158   0.952421   0.000000
 Stoichiometry    FH3O
 Framework group  C1[X(FH3O)]
 Deg. of freedom     9
 Full point group                 C1      NOp   1
 Largest Abelian subgroup         C1      NOp   1
 Largest concise Abelian subgroup C1      NOp   1
                         Standard orientation:                         
 ---------------------------------------------------------------------
 Center     Atomic      Atomic             Coordinates (Angstroms)
 Number     Number       Type             X           Y           Z
 ---------------------------------------------------------------------
      1          8           0        1.241087   -0.008299   -0.098228
      2          1           0        1.730600   -0.682549    0.397751
      3          1           0        1.538560    0.818591    0.311889
      4          9           0       -1.413830    0.003403    0.018533
      5          1           0       -0.473380   -0.100270   -0.090609
 ---------------------------------------------------------------------
 Rotational constants (GHZ):    326.3652841      7.4104224      7.3283723
 Standard basis: 6-31G(d,p) (6D, 7F)
 There are    45 symmetry adapted cartesian basis functions of A   symmetry.
 There are    45 symmetry adapted basis functions of A   symmetry.
    45 basis functions,    77 primitive gaussians,    45 cartesian basis functions
    10 alpha electrons       10 beta electrons
       nuclear repulsion energy        34.3635055536 Hartrees.
 NAtoms=    5 NActive=    5 NUniq=    5 SFac= 1.00D+00 NAtFMM=   60 NAOKFM=F Big=F
 Integral buffers will be    131072 words long.
 Raffenetti 2 integral format.
 Two-electron integral symmetry is turned on.
 Nuclear repulsion after empirical dispersion term =       34.3618634057 Hartrees.
 One-electron integrals computed using PRISM.
 NBasis=    45 RedAO= T EigKep=  7.57D-03  NBF=    45
 NBsUse=    45 1.00D-06 EigRej= -1.00D+00 NBFU=    45
 Initial guess from the checkpoint file:  "waterH.chk"
 B after Tr=     0.000000    0.000000    0.000000
         Rot=    0.999900   -0.014007    0.001453    0.001130 Ang=  -1.62 deg.
 ExpMin= 1.61D-01 ExpMax= 7.00D+03 ExpMxC= 1.05D+03 IAcc=1 IRadAn=         1 AccDes= 0.00D+00
 Harris functional with IExCor=  402 and IRadAn=       1 diagonalized for initial guess.
 HarFok:  IExCor=  402 AccDes= 0.00D+00 IRadAn=         1 IDoV= 1 UseB2=F ITyADJ=14
 ICtDFT=  3500011 ScaDFX=  1.000000  1.000000  1.000000  1.000000
 FoFCou: FMM=F IPFlag=           0 FMFlag=      100000 FMFlg1=           0
         NFxFlg=           0 DoJE=T BraDBF=F KetDBF=T FulRan=T
         wScrn=  0.000000 ICntrl=     500 IOpCl=  0 I1Cent=   200000004 NGrid=           0
         NMat0=    1 NMatS0=      1 NMatT0=    0 NMatD0=    1 NMtDS0=    0 NMtDT0=    0
 Petite list used in FoFCou.
 Keep R1 ints in memory in canonical form, NReq=1427337.
 Requested convergence on RMS density matrix=1.00D-08 within 128 cycles.
 Requested convergence on MAX density matrix=1.00D-06.
 Requested convergence on             energy=1.00D-06.
 No special actions if energy rises.
 Integral accuracy reduced to 1.0D-05 until final iterations.
 Initial convergence to 1.0D-05 achieved.  Increase integral accuracy.
 SCF Done:  E(RB3LYP) =  -176.866287624     A.U. after   11 cycles
            NFock= 11  Conv=0.23D-08     -V/T= 2.0071
 Calling FoFJK, ICntrl=      2127 FMM=F ISym2X=0 I1Cent= 0 IOpClX= 0 NMat=1 NMatS=1 NMatT=0.
 ***** Axes restored to original set *****
 -------------------------------------------------------------------
 Center     Atomic                   Forces (Hartrees/Bohr)
 Number     Number              X              Y              Z
 -------------------------------------------------------------------
      1        8           0.005203500    0.006384405    0.003791011
      2        1          -0.002385748   -0.003790630   -0.002082838
      3        1          -0.002976948   -0.003357059   -0.002255733
      4        9           0.008668719    0.005934551   -0.003293767
      5        1          -0.008509522   -0.005171268    0.003841327
 -------------------------------------------------------------------
 Cartesian Forces:  Max     0.008668719 RMS     0.004946058

 GradGradGradGradGradGradGradGradGradGradGradGradGradGradGradGradGradGrad
 Berny optimization.
 Using GEDIIS/GDIIS optimizer.
 FormGI is forming the generalized inverse of G from B-inverse, IUseBI=4.
 Internal  Forces:  Max     0.010993500 RMS     0.004220828
 Search for a local minimum.
 Step number   6 out of a maximum of  100
 All quantities printed in internal units (Hartrees-Bohrs-Radians)
 Mixed Optimization -- RFO/linear search
 Update second derivatives using D2CorX and points    4    5    6
 DE= -4.72D-04 DEPred=-3.68D-04 R= 1.28D+00
 TightC=F SS=  1.41D+00  RLast= 3.02D-01 DXNew= 1.2925D+00 9.0549D-01
 Trust test= 1.28D+00 RLast= 3.02D-01 DXMaxT set to 9.05D-01
 The second derivative matrix:
                          R1        R2        R3        R4        A1
           R1           0.59486
           R2           0.03905   0.59274
           R3           0.00391   0.00376   0.07137
           R4           0.10757   0.10519   0.01489   1.21240
           A1          -0.02416  -0.02307   0.00284  -0.06926   0.14188
           A2           0.02429   0.02309  -0.00451   0.09785  -0.02309
           A3           0.04234   0.04106   0.00522   0.18249  -0.06142
           A4          -0.01161  -0.01130  -0.00071  -0.03170   0.00479
           A5           0.00215   0.00226   0.00263   0.01348  -0.00599
           D1          -0.01791  -0.01747  -0.00239  -0.06309   0.01732
                          A2        A3        A4        A5        D1
           A2           0.08145
           A3           0.00051   0.21741
           A4          -0.00816  -0.01348   0.02702
           A5           0.02772   0.01501  -0.00060   0.01776
           D1          -0.01108  -0.02369   0.00503  -0.00204   0.01111
 ITU=  1  1  1  1  1  0
 Use linear search instead of GDIIS.
     Eigenvalues ---    0.00322   0.02553   0.03001   0.07033   0.10642
     Eigenvalues ---    0.21346   0.55474   0.59767   1.29637
 RFO step:  Lambda=-2.64458609D-04 EMin= 3.21767857D-03
 Quartic linear search produced a step of  0.92579.
 Iteration  1 RMS(Cart)=  0.08829377 RMS(Int)=  0.01927822
 Iteration  2 RMS(Cart)=  0.01347031 RMS(Int)=  0.00644760
 Iteration  3 RMS(Cart)=  0.00030621 RMS(Int)=  0.00643758
 Iteration  4 RMS(Cart)=  0.00000070 RMS(Int)=  0.00643758
 Variable       Old X    -DE/DX   Delta X   Delta X   Delta X     New X
                                 (Linear)    (Quad)   (Total)
    R1        1.83238  -0.00276   0.00267  -0.00267   0.00000   1.83238
    R2        1.83258  -0.00273   0.00239  -0.00269  -0.00030   1.83228
    R3        3.24456  -0.00055  -0.02431  -0.00204  -0.02634   3.21822
    R4        1.79982  -0.01099   0.00569  -0.00604  -0.00035   1.79947
    A1        1.79439   0.00445   0.00236   0.01965   0.00798   1.80236
    A2        2.05396  -0.00306  -0.11380  -0.01250  -0.13230   1.92166
    A3        1.92848  -0.00319  -0.03422  -0.00032  -0.04085   1.88763
    A4        2.94584   0.00092  -0.03490   0.03371  -0.00118   2.94466
    A5        3.18523   0.00033   0.21611   0.02541   0.24152   3.42675
    D1        2.05263   0.00126  -0.12408   0.01711  -0.09506   1.95757
         Item               Value     Threshold  Converged?
 Maximum Force            0.010993     0.000450     NO 
 RMS     Force            0.004221     0.000300     NO 
 Maximum Displacement     0.140073     0.001800     NO 
 RMS     Displacement     0.097719     0.001200     NO 
 Predicted change in Energy=-2.832492D-04
 GradGradGradGradGradGradGradGradGradGradGradGradGradGradGradGradGradGrad

                          Input orientation:                          
 ---------------------------------------------------------------------
 Center     Atomic      Atomic             Coordinates (Angstroms)
 Number     Number       Type             X           Y           Z
 ---------------------------------------------------------------------
      1          8           0        0.805171    0.852275   -0.263571
      2          1           0        1.622694    0.690560    0.232147
      3          1           0        0.477010    1.683138    0.113392
      4          9           0       -0.973330   -0.952985    0.466834
      5          1           0       -0.333756   -0.368734    0.071422
 ---------------------------------------------------------------------
                    Distance matrix (angstroms):
                    1          2          3          4          5
     1  O    0.000000
     2  H    0.969655   0.000000
     3  H    0.969600   1.520495   0.000000
     4  F    2.637332   3.081502   3.029448   0.000000
     5  H    1.703008   2.230612   2.206645   0.952236   0.000000
 Stoichiometry    FH3O
 Framework group  C1[X(FH3O)]
 Deg. of freedom     9
 Full point group                 C1      NOp   1
 Largest Abelian subgroup         C1      NOp   1
 Largest concise Abelian subgroup C1      NOp   1
                         Standard orientation:                         
 ---------------------------------------------------------------------
 Center     Atomic      Atomic             Coordinates (Angstroms)
 Number     Number       Type             X           Y           Z
 ---------------------------------------------------------------------
      1          8           0        1.240496   -0.002166   -0.107846
      2          1           0        1.569893   -0.738210    0.430642
      3          1           0        1.509790    0.780721    0.396825
      4          9           0       -1.393611    0.001184    0.022478
      5          1           0       -0.461151   -0.035843   -0.166998
 ---------------------------------------------------------------------
 Rotational constants (GHZ):    298.6619715      7.5830790      7.5112155
 Standard basis: 6-31G(d,p) (6D, 7F)
 There are    45 symmetry adapted cartesian basis functions of A   symmetry.
 There are    45 symmetry adapted basis functions of A   symmetry.
    45 basis functions,    77 primitive gaussians,    45 cartesian basis functions
    10 alpha electrons       10 beta electrons
       nuclear repulsion energy        34.6088029776 Hartrees.
 NAtoms=    5 NActive=    5 NUniq=    5 SFac= 1.00D+00 NAtFMM=   60 NAOKFM=F Big=F
 Integral buffers will be    131072 words long.
 Raffenetti 2 integral format.
 Two-electron integral symmetry is turned on.
 Nuclear repulsion after empirical dispersion term =       34.6071320318 Hartrees.
 One-electron integrals computed using PRISM.
 NBasis=    45 RedAO= T EigKep=  7.60D-03  NBF=    45
 NBsUse=    45 1.00D-06 EigRej= -1.00D+00 NBFU=    45
 Initial guess from the checkpoint file:  "waterH.chk"
 B after Tr=     0.000000    0.000000    0.000000
         Rot=    0.999468   -0.032449    0.002080    0.002485 Ang=  -3.74 deg.
 ExpMin= 1.61D-01 ExpMax= 7.00D+03 ExpMxC= 1.05D+03 IAcc=1 IRadAn=         1 AccDes= 0.00D+00
 Harris functional with IExCor=  402 and IRadAn=       1 diagonalized for initial guess.
 HarFok:  IExCor=  402 AccDes= 0.00D+00 IRadAn=         1 IDoV= 1 UseB2=F ITyADJ=14
 ICtDFT=  3500011 ScaDFX=  1.000000  1.000000  1.000000  1.000000
 FoFCou: FMM=F IPFlag=           0 FMFlag=      100000 FMFlg1=           0
         NFxFlg=           0 DoJE=T BraDBF=F KetDBF=T FulRan=T
         wScrn=  0.000000 ICntrl=     500 IOpCl=  0 I1Cent=   200000004 NGrid=           0
         NMat0=    1 NMatS0=      1 NMatT0=    0 NMatD0=    1 NMtDS0=    0 NMtDT0=    0
 Petite list used in FoFCou.
 Keep R1 ints in memory in canonical form, NReq=1427337.
 Requested convergence on RMS density matrix=1.00D-08 within 128 cycles.
 Requested convergence on MAX density matrix=1.00D-06.
 Requested convergence on             energy=1.00D-06.
 No special actions if energy rises.
 Integral accuracy reduced to 1.0D-05 until final iterations.
 Initial convergence to 1.0D-05 achieved.  Increase integral accuracy.
 SCF Done:  E(RB3LYP) =  -176.866671710     A.U. after   11 cycles
            NFock= 11  Conv=0.20D-08     -V/T= 2.0070
 Calling FoFJK, ICntrl=      2127 FMM=F ISym2X=0 I1Cent= 0 IOpClX= 0 NMat=1 NMatS=1 NMatT=0.
 ***** Axes restored to original set *****
 -------------------------------------------------------------------
 Center     Atomic                   Forces (Hartrees/Bohr)
 Number     Number              X              Y              Z
 -------------------------------------------------------------------
      1        8           0.004175343    0.004736191    0.003563690
      2        1          -0.002080040   -0.002253938   -0.002238853
      3        1          -0.001819873   -0.002570260   -0.002170976
      4        9           0.006256427    0.005293019   -0.004297022
      5        1          -0.006531858   -0.005205012    0.005143161
 -------------------------------------------------------------------
 Cartesian Forces:  Max     0.006531858 RMS     0.004190849

 GradGradGradGradGradGradGradGradGradGradGradGradGradGradGradGradGradGrad
 Berny optimization.
 Using GEDIIS/GDIIS optimizer.
 FormGI is forming the generalized inverse of G from B-inverse, IUseBI=4.
 Internal  Forces:  Max     0.009233855 RMS     0.003441335
 Search for a local minimum.
 Step number   7 out of a maximum of  100
 All quantities printed in internal units (Hartrees-Bohrs-Radians)
 Mixed Optimization -- RFO/linear search
 Update second derivatives using D2CorX and points    5    6    7
 DE= -3.84D-04 DEPred=-2.83D-04 R= 1.36D+00
 TightC=F SS=  1.41D+00  RLast= 2.95D-01 DXNew= 1.5228D+00 8.8640D-01
 Trust test= 1.36D+00 RLast= 2.95D-01 DXMaxT set to 9.05D-01
 The second derivative matrix:
                          R1        R2        R3        R4        A1
           R1           0.58693
           R2           0.03111   0.58480
           R3          -0.00044  -0.00042   0.07293
           R4           0.06814   0.06604   0.00043   1.02944
           A1          -0.00858  -0.00781   0.00367  -0.00580   0.12635
           A2           0.01086   0.00992  -0.00603   0.04172  -0.00813
           A3           0.02914   0.02804   0.00211   0.12438  -0.04356
           A4          -0.00957  -0.00921   0.00136  -0.01984  -0.00108
           A5           0.00429   0.00428   0.00114   0.01927  -0.00499
           D1          -0.01502  -0.01457  -0.00063  -0.04838   0.01128
                          A2        A3        A4        A5        D1
           A2           0.06736
           A3          -0.01572   0.19977
           A4          -0.00330  -0.00909   0.02673
           A5           0.02741   0.01578  -0.00179   0.01897
           D1          -0.00591  -0.01868   0.00432  -0.00294   0.01006
 ITU=  1  1  1  1  1  1  0
 Use linear search instead of GDIIS.
     Eigenvalues ---    0.00341   0.02581   0.03632   0.07135   0.09591
     Eigenvalues ---    0.20572   0.55474   0.59722   1.06946
 RFO step:  Lambda=-1.66662460D-04 EMin= 3.41276995D-03
 Quartic linear search produced a step of  0.65846.
 Iteration  1 RMS(Cart)=  0.05920312 RMS(Int)=  0.00487558
 Iteration  2 RMS(Cart)=  0.00362309 RMS(Int)=  0.00281969
 Iteration  3 RMS(Cart)=  0.00001050 RMS(Int)=  0.00281964
 Iteration  4 RMS(Cart)=  0.00000006 RMS(Int)=  0.00281964
 Variable       Old X    -DE/DX   Delta X   Delta X   Delta X     New X
                                 (Linear)    (Quad)   (Total)
    R1        1.83238  -0.00252   0.00000  -0.00199  -0.00199   1.83039
    R2        1.83228  -0.00245  -0.00020  -0.00190  -0.00209   1.83018
    R3        3.21822   0.00030  -0.01735   0.01080  -0.00654   3.21168
    R4        1.79947  -0.00923  -0.00023  -0.00622  -0.00645   1.79302
    A1        1.80236   0.00296   0.00525   0.01798   0.01704   1.81940
    A2        1.92166  -0.00205  -0.08711   0.00291  -0.08655   1.83511
    A3        1.88763  -0.00225  -0.02690   0.00667  -0.02245   1.86518
    A4        2.94466   0.00102  -0.00078   0.03197   0.03119   2.97584
    A5        3.42675  -0.00018   0.15903  -0.01889   0.14014   3.56689
    D1        1.95757   0.00126  -0.06259   0.02617  -0.03088   1.92669
         Item               Value     Threshold  Converged?
 Maximum Force            0.009234     0.000450     NO 
 RMS     Force            0.003441     0.000300     NO 
 Maximum Displacement     0.098493     0.001800     NO 
 RMS     Displacement     0.060397     0.001200     NO 
 Predicted change in Energy=-1.591666D-04
 GradGradGradGradGradGradGradGradGradGradGradGradGradGradGradGradGradGrad

                          Input orientation:                          
 ---------------------------------------------------------------------
 Center     Atomic      Atomic             Coordinates (Angstroms)
 Number     Number       Type             X           Y           Z
 ---------------------------------------------------------------------
      1          8           0        0.807011    0.867932   -0.282780
      2          1           0        1.578445    0.639388    0.256525
      3          1           0        0.477231    1.689838    0.109255
      4          9           0       -0.921210   -0.956708    0.481746
      5          1           0       -0.343689   -0.336197    0.055479
 ---------------------------------------------------------------------
                    Distance matrix (angstroms):
                    1          2          3          4          5
     1  O    0.000000
     2  H    0.968603   0.000000
     3  H    0.968492   1.528989   0.000000
     4  F    2.626892   2.974310   3.016388   0.000000
     5  H    1.699546   2.164898   2.186691   0.948825   0.000000
 Stoichiometry    FH3O
 Framework group  C1[X(FH3O)]
 Deg. of freedom     9
 Full point group                 C1      NOp   1
 Largest Abelian subgroup         C1      NOp   1
 Largest concise Abelian subgroup C1      NOp   1
                         Standard orientation:                         
 ---------------------------------------------------------------------
 Center     Atomic      Atomic             Coordinates (Angstroms)
 Number     Number       Type             X           Y           Z
 ---------------------------------------------------------------------
      1          8           0        1.241148    0.001324   -0.110012
      2          1           0        1.460460   -0.779331    0.419773
      3          1           0        1.508709    0.748691    0.444811
      4          9           0       -1.382415   -0.000555    0.022171
      5          1           0       -0.456620    0.025043   -0.184023
 ---------------------------------------------------------------------
 Rotational constants (GHZ):    289.1468703      7.6796662      7.6094133
 Standard basis: 6-31G(d,p) (6D, 7F)
 There are    45 symmetry adapted cartesian basis functions of A   symmetry.
 There are    45 symmetry adapted basis functions of A   symmetry.
    45 basis functions,    77 primitive gaussians,    45 cartesian basis functions
    10 alpha electrons       10 beta electrons
       nuclear repulsion energy        34.7689693535 Hartrees.
 NAtoms=    5 NActive=    5 NUniq=    5 SFac= 1.00D+00 NAtFMM=   60 NAOKFM=F Big=F
 Integral buffers will be    131072 words long.
 Raffenetti 2 integral format.
 Two-electron integral symmetry is turned on.
 Nuclear repulsion after empirical dispersion term =       34.7672819842 Hartrees.
 One-electron integrals computed using PRISM.
 NBasis=    45 RedAO= T EigKep=  7.60D-03  NBF=    45
 NBsUse=    45 1.00D-06 EigRej= -1.00D+00 NBFU=    45
 Initial guess from the checkpoint file:  "waterH.chk"
 B after Tr=     0.000000    0.000000    0.000000
         Rot=    0.999623   -0.027326    0.001321    0.002309 Ang=  -3.15 deg.
 ExpMin= 1.61D-01 ExpMax= 7.00D+03 ExpMxC= 1.05D+03 IAcc=1 IRadAn=         1 AccDes= 0.00D+00
 Harris functional with IExCor=  402 and IRadAn=       1 diagonalized for initial guess.
 HarFok:  IExCor=  402 AccDes= 0.00D+00 IRadAn=         1 IDoV= 1 UseB2=F ITyADJ=14
 ICtDFT=  3500011 ScaDFX=  1.000000  1.000000  1.000000  1.000000
 FoFCou: FMM=F IPFlag=           0 FMFlag=      100000 FMFlg1=           0
         NFxFlg=           0 DoJE=T BraDBF=F KetDBF=T FulRan=T
         wScrn=  0.000000 ICntrl=     500 IOpCl=  0 I1Cent=   200000004 NGrid=           0
         NMat0=    1 NMatS0=      1 NMatT0=    0 NMatD0=    1 NMtDS0=    0 NMtDT0=    0
 Petite list used in FoFCou.
 Keep R1 ints in memory in canonical form, NReq=1427337.
 Requested convergence on RMS density matrix=1.00D-08 within 128 cycles.
 Requested convergence on MAX density matrix=1.00D-06.
 Requested convergence on             energy=1.00D-06.
 No special actions if energy rises.
 Integral accuracy reduced to 1.0D-05 until final iterations.
 Initial convergence to 1.0D-05 achieved.  Increase integral accuracy.
 SCF Done:  E(RB3LYP) =  -176.866879583     A.U. after    9 cycles
            NFock=  9  Conv=0.65D-08     -V/T= 2.0070
 Calling FoFJK, ICntrl=      2127 FMM=F ISym2X=0 I1Cent= 0 IOpClX= 0 NMat=1 NMatS=1 NMatT=0.
 ***** Axes restored to original set *****
 -------------------------------------------------------------------
 Center     Atomic                   Forces (Hartrees/Bohr)
 Number     Number              X              Y              Z
 -------------------------------------------------------------------
      1        8           0.002182572    0.002614379    0.001675163
      2        1          -0.001394627   -0.000612159   -0.001254591
      3        1          -0.000380867   -0.001533747   -0.001069418
      4        9           0.003073136    0.003445503   -0.002835940
      5        1          -0.003480214   -0.003913975    0.003484787
 -------------------------------------------------------------------
 Cartesian Forces:  Max     0.003913975 RMS     0.002461336

 GradGradGradGradGradGradGradGradGradGradGradGradGradGradGradGradGradGrad
 Berny optimization.
 Using GEDIIS/GDIIS optimizer.
 FormGI is forming the generalized inverse of G from B-inverse, IUseBI=4.
 Internal  Forces:  Max     0.005397277 RMS     0.001960595
 Search for a local minimum.
 Step number   8 out of a maximum of  100
 All quantities printed in internal units (Hartrees-Bohrs-Radians)
 Mixed Optimization -- RFO/linear search
 Update second derivatives using D2CorX and points    6    7    8
 DE= -2.08D-04 DEPred=-1.59D-04 R= 1.31D+00
 TightC=F SS=  1.41D+00  RLast= 1.73D-01 DXNew= 1.5228D+00 5.1912D-01
 Trust test= 1.31D+00 RLast= 1.73D-01 DXMaxT set to 9.05D-01
 The second derivative matrix:
                          R1        R2        R3        R4        A1
           R1           0.57177
           R2           0.01625   0.57024
           R3           0.00124   0.00112   0.07544
           R4           0.01196   0.01086   0.00969   0.82463
           A1           0.00693   0.00757  -0.00270   0.04647   0.11849
           A2          -0.00042  -0.00123  -0.00233   0.00266  -0.00080
           A3           0.01650   0.01553   0.00661   0.08101  -0.03596
           A4          -0.00392  -0.00366   0.00033   0.00063  -0.00615
           A5           0.00285   0.00293  -0.00009   0.01238  -0.00112
           D1          -0.01093  -0.01049  -0.00295  -0.03536   0.01033
                          A2        A3        A4        A5        D1
           A2           0.06119
           A3          -0.02232   0.19278
           A4           0.00053  -0.00485   0.02469
           A5           0.02507   0.01299  -0.00105   0.01956
           D1          -0.00458  -0.01743   0.00309  -0.00159   0.01027
 ITU=  1  1  1  1  1  1  1  0
 Use linear search instead of GDIIS.
     Eigenvalues ---    0.00400   0.02433   0.04110   0.07514   0.08405
     Eigenvalues ---    0.20607   0.55474   0.58682   0.83309
 RFO step:  Lambda=-4.78673496D-05 EMin= 4.00196386D-03
 Quartic linear search produced a step of  0.50663.
 Iteration  1 RMS(Cart)=  0.01914959 RMS(Int)=  0.00074616
 Iteration  2 RMS(Cart)=  0.00043056 RMS(Int)=  0.00049281
 Iteration  3 RMS(Cart)=  0.00000031 RMS(Int)=  0.00049281
 Variable       Old X    -DE/DX   Delta X   Delta X   Delta X     New X
                                 (Linear)    (Quad)   (Total)
    R1        1.83039  -0.00167  -0.00101  -0.00179  -0.00280   1.82759
    R2        1.83018  -0.00165  -0.00106  -0.00182  -0.00288   1.82730
    R3        3.21168   0.00076  -0.00331   0.01406   0.01074   3.22242
    R4        1.79302  -0.00540  -0.00327  -0.00408  -0.00735   1.78567
    A1        1.81940   0.00104   0.00863   0.00239   0.00994   1.82934
    A2        1.83511  -0.00092  -0.04385   0.01241  -0.03183   1.80328
    A3        1.86518  -0.00082  -0.01137   0.00632  -0.00541   1.85977
    A4        2.97584   0.00053   0.01580   0.00943   0.02523   3.00107
    A5        3.56689  -0.00037   0.07100  -0.03819   0.03281   3.59970
    D1        1.92669   0.00045  -0.01565   0.01047  -0.00419   1.92250
         Item               Value     Threshold  Converged?
 Maximum Force            0.005397     0.000450     NO 
 RMS     Force            0.001961     0.000300     NO 
 Maximum Displacement     0.030559     0.001800     NO 
 RMS     Displacement     0.019306     0.001200     NO 
 Predicted change in Energy=-4.954913D-05
 GradGradGradGradGradGradGradGradGradGradGradGradGradGradGradGradGradGrad

                          Input orientation:                          
[...]
     15 vectors produced by pass  0 Test12= 1.94D-15 5.56D-09 XBig12= 4.32D+00 1.24D+00.
 AX will form    15 AO Fock derivatives at one time.
     15 vectors produced by pass  1 Test12= 1.94D-15 5.56D-09 XBig12= 3.23D-01 2.32D-01.
     15 vectors produced by pass  2 Test12= 1.94D-15 5.56D-09 XBig12= 2.05D-03 1.16D-02.
     15 vectors produced by pass  3 Test12= 1.94D-15 5.56D-09 XBig12= 1.50D-06 3.46D-04.
     14 vectors produced by pass  4 Test12= 1.94D-15 5.56D-09 XBig12= 9.62D-10 7.78D-06.
      5 vectors produced by pass  5 Test12= 1.94D-15 5.56D-09 XBig12= 3.24D-13 1.05D-07.
 InvSVY:  IOpt=1 It=  1 EMax= 8.88D-16
 Solved reduced A of dimension    79 with    15 vectors.
 Isotropic polarizability for W=    0.000000        9.08 Bohr**3.
 End of Minotr F.D. properties file   721 does not exist.
 End of Minotr F.D. properties file   722 does not exist.
 End of Minotr F.D. properties file   788 does not exist.

 **********************************************************************

            Population analysis using the SCF density.

 **********************************************************************

 Orbital symmetries:
       Occupied  (A) (A) (A) (A) (A) (A) (A) (A) (A) (A)
       Virtual   (A) (A) (A) (A) (A) (A) (A) (A) (A) (A) (A) (A)
                 (A) (A) (A) (A) (A) (A) (A) (A) (A) (A) (A) (A)
                 (A) (A) (A) (A) (A) (A) (A) (A) (A) (A) (A)
 The electronic state is 1-A.
 Alpha  occ. eigenvalues --  -24.60803 -19.19589  -1.11527  -1.05192  -0.56826
 Alpha  occ. eigenvalues --   -0.48406  -0.42019  -0.34842  -0.32968  -0.32801
 Alpha virt. eigenvalues --    0.02906   0.11695   0.21065   0.71240   0.74875
 Alpha virt. eigenvalues --    0.79089   0.83763   0.95988   0.97803   1.13333
 Alpha virt. eigenvalues --    1.19324   1.22171   1.26301   1.46905   1.48032
 Alpha virt. eigenvalues --    1.58120   1.66577   1.67180   1.81648   1.91129
 Alpha virt. eigenvalues --    1.91130   2.14994   2.21436   2.39939   2.56809
 Alpha virt. eigenvalues --    2.60504   2.70695   2.79690   2.87312   2.99693
 Alpha virt. eigenvalues --    3.25436   3.49302   3.72043   3.76662   4.17448
          Condensed to atoms (all electrons):
               1          2          3          4          5
     1  O    7.977195   0.287624   0.287646  -0.017179   0.059333
     2  H    0.287624   0.403969  -0.022220   0.001555  -0.004228
     3  H    0.287646  -0.022220   0.403933   0.001552  -0.004221
     4  F   -0.017179   0.001555   0.001552   9.194615   0.249884
     5  H    0.059333  -0.004228  -0.004221   0.249884   0.340793
 Mulliken charges:
               1
     1  O   -0.594619
     2  H    0.333299
     3  H    0.333309
     4  F   -0.430428
     5  H    0.358439
 Sum of Mulliken charges =   0.00000
 Mulliken charges with hydrogens summed into heavy atoms:
               1
     1  O    0.071989
     4  F   -0.071989
 APT charges:
               1
     1  O   -0.554591
     2  H    0.280942
     3  H    0.280932
     4  F   -0.515802
     5  H    0.508519
 Sum of APT charges =   0.00000
 APT charges with hydrogens summed into heavy atoms:
               1
     1  O    0.007282
     4  F   -0.007282
 Electronic spatial extent (au):  <R**2>=            154.3578
 Charge=              0.0000 electrons
 Dipole moment (field-independent basis, Debye):
    X=              3.4619    Y=             -0.0010    Z=              1.5909  Tot=              3.8100
 Quadrupole moment (field-independent basis, Debye-Ang):
   XX=            -13.1152   YY=             -9.4728   ZZ=            -11.3885
   XY=              0.0011   XZ=              3.1193   YZ=              0.0001
 Traceless Quadrupole moment (field-independent basis, Debye-Ang):
   XX=             -1.7897   YY=              1.8527   ZZ=             -0.0630
   XY=              0.0011   XZ=              3.1193   YZ=              0.0001
 Octapole moment (field-independent basis, Debye-Ang**2):
  XXX=              4.5699  YYY=             -0.0013  ZZZ=              1.0844  XYY=              2.4764
  XXY=              0.0040  XXZ=              4.7404  XZZ=             -0.4255  YZZ=              0.0001
  YYZ=              1.2235  XYZ=              0.0005
 Hexadecapole moment (field-independent basis, Debye-Ang**3):
 XXXX=           -129.1618 YYYY=             -8.6142 ZZZZ=             -9.0286 XXXY=              0.0092
 XXXZ=              7.4208 YYYX=             -0.0003 YYYZ=             -0.0004 ZZZX=              1.6625
 ZZZY=              0.0002 XXYY=            -18.2090 XXZZ=            -22.0751 YYZZ=             -2.6716
 XXYZ=              0.0019 YYXZ=              1.8634 ZZXY=              0.0007
 N-N= 3.469151075571D+01 E-N=-4.901455801234D+02  KE= 1.756539146569D+02
  Exact polarizability:  11.165   0.002   9.054   0.831   0.000   7.006
 Approx polarizability:  12.334   0.002  11.116   0.721   0.000   8.627
 Calling FoFJK, ICntrl=    100127 FMM=F ISym2X=0 I1Cent= 0 IOpClX= 0 NMat=1 NMatS=1 NMatT=0.
 Full mass-weighted force constant matrix:
 Low frequencies ---  -29.5590   -8.4972   -8.3686   -0.0028   -0.0022   -0.0020
 Low frequencies ---  178.8974  199.9557  291.1174
 Diagonal vibrational polarizability:
      145.2825738      17.6451088       9.2254403
 Harmonic frequencies (cm**-1), IR intensities (KM/Mole), Raman scattering
 activities (A**4/AMU), depolarization ratios for plane and unpolarized
 incident light, reduced masses (AMU), force constants (mDyne/A),
 and normal coordinates:
                      1                      2                      3
                      A                      A                      A
 Frequencies --    178.8904               199.9538               291.1172
 Red. masses --      1.0367                 1.3639                 3.5339
 Frc consts  --      0.0195                 0.0321                 0.1765
 IR Inten    --     14.9672               139.2756               158.6005
  Atom  AN      X      Y      Z        X      Y      Z        X      Y      Z
     1   8     0.00  -0.02   0.00     0.07   0.00   0.03     0.33   0.00  -0.05
     2   1     0.61   0.06  -0.12     0.61  -0.01  -0.20    -0.45   0.02   0.28
     3   1    -0.62   0.06   0.12     0.61   0.01  -0.20    -0.45  -0.02   0.28
     4   9     0.00   0.04   0.00    -0.12   0.00  -0.02    -0.21   0.00   0.04
     5   1     0.00  -0.45   0.00    -0.03   0.00   0.39    -0.32   0.00  -0.43
                      4                      5                      6
                      A                      A                      A
 Frequencies --    730.2440               830.3638              1654.0401
 Red. masses --      1.0507                 1.0395                 1.0821
 Frc consts  --      0.3301                 0.4223                 1.7443
 IR Inten    --    163.9479               126.8285                79.6749
  Atom  AN      X      Y      Z        X      Y      Z        X      Y      Z
     1   8    -0.02   0.00   0.04     0.00  -0.04   0.00     0.03   0.00   0.06
     2   1     0.27  -0.01  -0.09     0.32   0.07   0.02    -0.22  -0.43  -0.51
     3   1     0.27   0.01  -0.09    -0.32   0.07  -0.02    -0.22   0.43  -0.51
     4   9     0.00   0.00   0.02     0.00  -0.02   0.00     0.00   0.00   0.00
     5   1    -0.20   0.00  -0.89     0.00   0.88   0.00     0.01   0.00   0.01
                      7                      8                      9
                      A                      A                      A
 Frequencies --   3722.5583              3796.5130              3902.7092
 Red. masses --      1.0587                 1.0452                 1.0818
 Frc consts  --      8.6442                 8.8761                 9.7079
 IR Inten    --    671.0248                20.6881                62.4959
  Atom  AN      X      Y      Z        X      Y      Z        X      Y      Z
     1   8     0.00   0.00   0.01     0.02   0.00   0.05     0.00   0.07   0.00
     2   1    -0.03   0.12  -0.08    -0.14   0.57  -0.36     0.16  -0.56   0.40
     3   1    -0.03  -0.12  -0.08    -0.14  -0.57  -0.36    -0.16  -0.56  -0.40
     4   9     0.05   0.00  -0.01    -0.01   0.00   0.00     0.00   0.00   0.00
     5   1    -0.95   0.00   0.21     0.20   0.00  -0.04     0.00   0.00   0.00

 -------------------
 - Thermochemistry -
 -------------------
 Temperature   298.150 Kelvin.  Pressure   1.00000 Atm.
 Atom     1 has atomic number  8 and mass  15.99491
 Atom     2 has atomic number  1 and mass   1.00783
 Atom     3 has atomic number  1 and mass   1.00783
 Atom     4 has atomic number  9 and mass  18.99840
 Atom     5 has atomic number  1 and mass   1.00783
 Molecular mass:    38.01679 amu.
 Principal axes and moments of inertia in atomic units:
                           1         2         3
     Eigenvalues --     6.29524 237.73093 239.87866
           X            0.99975   0.00000   0.02227
           Y            0.00000   1.00000   0.00001
           Z           -0.02227  -0.00001   0.99975
 This molecule is an asymmetric top.
 Rotational symmetry number  1.
 Rotational temperatures (Kelvin)     13.75863     0.36434     0.36107
 Rotational constants (GHZ):         286.68358     7.59153     7.52356
 Zero-point vibrational energy      91552.5 (Joules/Mol)
                                   21.88158 (Kcal/Mol)
 Warning -- explicit consideration of   3 degrees of freedom as
           vibrations may cause significant error
 Vibrational temperatures:    257.38   287.69   418.85  1050.66  1194.71
          (Kelvin)           2379.79  5355.92  5462.33  5615.12
 
 Zero-point correction=                           0.034871 (Hartree/Particle)
 Thermal correction to Energy=                    0.039464
 Thermal correction to Enthalpy=                  0.040408
 Thermal correction to Gibbs Free Energy=         0.010118
 Sum of electronic and zero-point Energies=           -176.832107
 Sum of electronic and thermal Energies=              -176.827514
 Sum of electronic and thermal Enthalpies=            -176.826569
 Sum of electronic and thermal Free Energies=         -176.856859
 
                     E (Thermal)             CV                S
                      KCal/Mol        Cal/Mol-Kelvin    Cal/Mol-Kelvin
 Total                   24.764             12.778             63.751
 Electronic               0.000              0.000              0.000
 Translational            0.889              2.981             36.835
 Rotational               0.889              2.981             20.512
 Vibrational             22.986              6.816              6.403
 Vibration     1          0.629              1.868              2.340
 Vibration     2          0.638              1.840              2.134
 Vibration     3          0.687              1.690              1.467
                       Q            Log10(Q)             Ln(Q)
 Total Bot       0.221896D-04         -4.653850        -10.715885
 Total V=0       0.242908D+12         11.385443         26.215951
 Vib (Bot)       0.355092D-15        -15.449659        -35.574155
 Vib (Bot)    1  0.112319D+01          0.050452          0.116171
 Vib (Bot)    2  0.997225D+00         -0.001207         -0.002779
 Vib (Bot)    3  0.656494D+00         -0.182769         -0.420842
 Vib (V=0)       0.388717D+01          0.589633          1.357681
 Vib (V=0)    1  0.172945D+01          0.237908          0.547804
 Vib (V=0)    2  0.161555D+01          0.208321          0.479677
 Vib (V=0)    3  0.132522D+01          0.122287          0.281577
 Electronic      0.100000D+01          0.000000          0.000000
 Translational   0.921337D+07          6.964418         16.036166
 Rotational      0.678252D+04          3.831391          8.822104
 ***** Axes restored to original set *****
 -------------------------------------------------------------------
 Center     Atomic                   Forces (Hartrees/Bohr)
 Number     Number              X              Y              Z
 -------------------------------------------------------------------
      1        8           0.000014726   -0.000016886   -0.000004507
      2        1          -0.000008967    0.000022376   -0.000001176
      3        1           0.000005841   -0.000012541    0.000008428
      4        9          -0.000005186   -0.000019322    0.000000894
      5        1          -0.000006414    0.000026373   -0.000003640
 -------------------------------------------------------------------
 Cartesian Forces:  Max     0.000026373 RMS     0.000012957
 FormGI is forming the generalized inverse of G from B-inverse, IUseBI=4.

 GradGradGradGradGradGradGradGradGradGradGradGradGradGradGradGradGradGrad
 Berny optimization.
 Internal  Forces:  Max     0.000021668 RMS     0.000013510
 Search for a local minimum.
 Step number   1 out of a maximum of    2
 All quantities printed in internal units (Hartrees-Bohrs-Radians)
 Second derivative matrix not updated -- analytic derivatives used.
 The second derivative matrix:
                          R1        R2        R3        R4        A1
           R1           0.53233
           R2          -0.00611   0.53247
           R3           0.00131   0.00120   0.02420
           R4          -0.00183  -0.00190   0.02770   0.53268
           A1           0.01448   0.01449   0.00071  -0.00160   0.04431
           A2          -0.00041  -0.00325   0.00030   0.00213  -0.01725
           A3          -0.00390  -0.00057   0.00081   0.00226  -0.01632
           A4          -0.00065  -0.00172   0.00223   0.00130   0.00019
           A5           0.00081   0.00059  -0.00117  -0.00057  -0.00054
           D1           0.01425   0.01444   0.00116  -0.00019   0.03643
                          A2        A3        A4        A5        D1
           A2           0.02214
           A3           0.00058   0.02294
           A4           0.00064  -0.00941   0.01458
           A5           0.00585  -0.00276  -0.00057   0.00476
           D1          -0.01076  -0.00949  -0.00288   0.00050   0.03253
 ITU=  0
     Eigenvalues ---    0.00207   0.00543   0.01775   0.02313   0.02828
     Eigenvalues ---    0.08534   0.52720   0.53521   0.53853
 Angle between quadratic step and forces=  51.00 degrees.
 Linear search not attempted -- first point.
 Iteration  1 RMS(Cart)=  0.00060786 RMS(Int)=  0.00000042
 Iteration  2 RMS(Cart)=  0.00000031 RMS(Int)=  0.00000000
 Variable       Old X    -DE/DX   Delta X   Delta X   Delta X     New X
                                 (Linear)    (Quad)   (Total)
    R1        1.82696  -0.00001   0.00000  -0.00003  -0.00003   1.82693
    R2        1.82694  -0.00001   0.00000  -0.00001  -0.00001   1.82693
    R3        3.25495   0.00000   0.00000  -0.00005  -0.00005   3.25490
    R4        1.78051   0.00002   0.00000   0.00003   0.00003   1.78054
    A1        1.82860  -0.00001   0.00000  -0.00012  -0.00012   1.82848
    A2        1.81469   0.00002   0.00000   0.00104   0.00104   1.81573
    A3        1.81593  -0.00001   0.00000  -0.00020  -0.00020   1.81573
    A4        2.96626   0.00002   0.00000   0.00103   0.00103   2.96729
    A5        3.49277   0.00000   0.00000  -0.00037  -0.00037   3.49240
    D1        1.91037  -0.00001   0.00000   0.00017   0.00017   1.91054
         Item               Value     Threshold  Converged?
 Maximum Force            0.000022     0.000450     YES
 RMS     Force            0.000014     0.000300     YES
 Maximum Displacement     0.000920     0.001800     YES
 RMS     Displacement     0.000608     0.001200     YES
 Predicted change in Energy=-2.064135D-08
 Optimization completed.
    -- Stationary point found.
                           ----------------------------
                           !   Optimized Parameters   !
                           ! (Angstroms and Degrees)  !
 --------------------------                            --------------------------
 ! Name  Definition              Value          Derivative Info.                !
 --------------------------------------------------------------------------------
 ! R1    R(1,2)                  0.9668         -DE/DX =    0.0                 !
 ! R2    R(1,3)                  0.9668         -DE/DX =    0.0                 !
 ! R3    R(1,5)                  1.7224         -DE/DX =    0.0                 !
 ! R4    R(4,5)                  0.9422         -DE/DX =    0.0                 !
 ! A1    A(2,1,3)              104.7709         -DE/DX =    0.0                 !
 ! A2    A(2,1,5)              103.9742         -DE/DX =    0.0                 !
 ! A3    A(3,1,5)              104.0451         -DE/DX =    0.0                 !
 ! A4    L(1,5,4,3,-1)         169.9542         -DE/DX =    0.0                 !
 ! A5    L(1,5,4,3,-2)         200.121          -DE/DX =    0.0                 !
 ! D1    D(2,1,5,3)            109.4559         -DE/DX =    0.0                 !
 --------------------------------------------------------------------------------
 GradGradGradGradGradGradGradGradGradGradGradGradGradGradGradGradGradGrad

 1\1\GINC-UBUNTU-5950X\Freq\RB3LYP\6-31G(d,p)\F1H3O1\WXYHGK\02-Nov-2023
 \0\\#N Geom=AllCheck Guess=TCheck SCRF=Check GenChk RB3LYP/6-31G(d,p) 
 Freq\\Calculated hydrogen bond\\0,1\O,0.8231992977,0.8771685518,-0.293
 6803643\H,1.5851392543,0.6435737172,0.2536322047\H,0.4592883813,1.6730
 234556,0.1172171779\F,-0.9336007561,-0.9441165128,0.4791580785\H,-0.33
 62375072,-0.3453959618,0.0638974632\\Version=EM64L-G09RevD.01\State=1-
 A\HF=-176.8669772\RMSD=1.643e-10\RMSF=1.296e-05\ZeroPoint=0.0348705\Th
 ermal=0.0394636\Dipole=0.9763205,1.104487,0.2715912\DipoleDeriv=-0.609
 3874,-0.1806008,0.1307535,-0.1820063,-0.6091681,0.140867,0.1212637,0.1
 304195,-0.4452188,0.2820577,0.028209,-0.0848882,0.0018829,0.3065485,-0
 .0194205,-0.1014327,-0.0078022,0.2542199,0.3046318,0.015991,-0.0077742
 ,0.0414975,0.2623692,-0.0825681,0.0021618,-0.1013974,0.2757941,-0.5437
 723,-0.1122502,0.0144901,-0.1076469,-0.555446,0.0147182,0.0490198,0.05
 25384,-0.4481863,0.5664702,0.248651,-0.0525812,0.2462728,0.5956964,-0.
 0535966,-0.0710127,-0.0737583,0.3633912\Polar=10.0918078,1.134046,10.2
 547768,-0.0297443,-0.3218185,6.878693\PG=C01 [X(F1H3O1)]\NImag=0\\0.43
 681842,-0.24816563,0.42863111,0.16123059,0.12628174,0.30534802,-0.3221
 9373,0.11561363,-0.20754563,0.34011153,0.08320388,-0.06336682,0.032596
 32,-0.11548590,0.07134352,-0.24555018,0.06686865,-0.18320012,0.2258076
 6,-0.05526857,0.17575684,-0.10059475,0.13962539,0.04374942,-0.01463420
 ,0.03451427,0.01931321,0.11235015,0.17146591,-0.35131140,-0.16194417,-
 0.00036611,-0.01045339,-0.01133886,-0.17216228,0.36539121,0.07740695,-
 0.20097402,-0.11687921,-0.01584185,0.02502974,0.00729416,-0.06149819,0
 .17534219,0.10948673,-0.00869180,-0.01522801,0.00440111,0.00213458,0.0
 0053616,0.00013304,-0.00286543,-0.00016695,0.00027702,0.21693014,-0.01
 511532,-0.01022555,0.00449602,0.00037001,-0.00255026,0.00050364,0.0003
 0154,0.00231241,-0.00018163,0.21333285,0.21812612,0.00517837,0.0053527
 3,0.00327414,0.00120014,0.00189309,-0.00104320,0.00152529,0.00096100,-
 0.00091370,-0.14712208,-0.14743339,0.10664869,-0.00533814,0.00815461,-
 0.00183548,-0.00541818,-0.00276839,0.00029626,0.00574423,0.00122943,-0
 .00034393,-0.20750750,-0.19888909,0.13921828,0.21251959,0.00861117,-0.
 00372734,-0.00142991,-0.00013164,0.00502695,-0.00076486,-0.00227892,-0
 .00593884,0.00078372,-0.19847405,-0.20766272,0.13922657,0.19227344,0.2
 1230195,0.00173427,0.00247090,-0.00854282,-0.00362032,-0.00425058,0.00
 119233,-0.00308973,-0.00302016,0.00101203,0.14231091,0.14261536,-0.107
 96592,-0.13733512,-0.13781553,0.11430438\\-0.00001473,0.00001689,0.000
 00451,0.00000897,-0.00002238,0.00000118,-0.00000584,0.00001254,-0.0000
 0843,0.00000519,0.00001932,-0.00000089,0.00000641,-0.00002637,0.000003
 64\\\@


 IT MATTERS NOT HOW DEEP YOU PLOW,
 BUT HOW LONG YOU STAY IN THE FURROW.
 Job cpu time:       0 days  0 hours  2 minutes  6.4 seconds.
 File lengths (MBytes):  RWF=      5 Int=      0 D2E=      0 Chk=      1 Scr=      1
 Normal termination of Gaussian 09 at Thu Nov  2 14:55:40 2023.
